/*--------------------------------*- C++ -*----------------------------------*\
  =========                 |
  \\      /  F ield         | OpenFOAM: The Open Source CFD Toolbox
   \\    /   O peration     | Website:  https://openfoam.org
    \\  /    A nd           | Version:  6
     \\/     M anipulation  |
\*---------------------------------------------------------------------------*/
FoamFile
{
    version     2.0;
    format      ascii;
    class       volScalarField;
    location    "0.0002";
    object      H;
}
// * * * * * * * * * * * * * * * * * * * * * * * * * * * * * * * * * * * * * //

dimensions      [0 0 0 0 0 0 0];

internalField   nonuniform List<scalar> 
208908
(
2.07573469325e-06
2.08301273006e-06
2.09114772338e-06
2.09911633117e-06
2.10696719098e-06
2.11477652835e-06
2.12258667492e-06
2.13040489637e-06
2.13824615678e-06
2.14611196269e-06
2.15400162455e-06
2.16191301546e-06
2.1698525267e-06
2.1778138357e-06
2.18580716312e-06
2.19382419583e-06
2.20186996726e-06
2.20994135072e-06
2.21803908757e-06
2.22616588857e-06
2.23432378632e-06
2.24250690944e-06
2.25072293579e-06
2.25896551791e-06
2.26723399565e-06
2.27554901871e-06
2.28387269589e-06
2.29222896128e-06
2.3006212485e-06
2.3090472186e-06
2.31750655741e-06
2.32599305827e-06
2.33449921155e-06
2.34304533647e-06
2.35163387675e-06
2.36024758257e-06
2.3688881281e-06
2.37758443192e-06
2.38628686802e-06
2.39504095265e-06
2.40380037044e-06
2.41262079058e-06
2.42146625601e-06
2.43035747719e-06
2.43926282394e-06
2.44824248261e-06
2.45721665327e-06
2.46624374383e-06
2.47527178173e-06
2.48437685309e-06
2.49351853341e-06
2.50272761022e-06
2.51190093509e-06
2.52111596898e-06
2.53041913567e-06
2.53974456411e-06
2.5491189105e-06
2.55851619647e-06
2.56798707893e-06
2.57740490451e-06
2.58700049626e-06
2.59648701164e-06
2.07572761047e-06
2.08300566708e-06
2.09114057637e-06
2.09910924822e-06
2.10695994977e-06
2.11476942146e-06
2.12257994057e-06
2.1303980477e-06
2.13823926398e-06
2.14610514545e-06
2.15399495828e-06
2.16190653561e-06
2.16984607433e-06
2.1778073135e-06
2.18580091903e-06
2.19381787885e-06
2.20186377144e-06
2.20993524253e-06
2.21803299138e-06
2.22616005852e-06
2.23431804694e-06
2.24250095355e-06
2.25071712804e-06
2.25896117153e-06
2.26723026773e-06
2.27554232251e-06
2.28386380814e-06
2.29222120818e-06
2.30061734128e-06
2.30904267272e-06
2.3174952253e-06
2.32598926514e-06
2.33449437685e-06
2.34304252426e-06
2.35162938914e-06
2.36024161778e-06
2.36888408999e-06
2.37757685191e-06
2.38627844075e-06
2.3950328182e-06
2.40379862502e-06
2.41261693656e-06
2.42146061802e-06
2.43035614533e-06
2.43925693783e-06
2.44823615094e-06
2.45721283328e-06
2.46623858874e-06
2.47526595537e-06
2.48437138158e-06
2.49351342471e-06
2.50272222478e-06
2.51189703082e-06
2.52110940163e-06
2.53041511383e-06
2.53973290048e-06
2.54910905763e-06
2.55851496718e-06
2.56798635277e-06
2.57739956698e-06
2.58699575434e-06
2.59647818448e-06
2.07572095525e-06
2.08299901593e-06
2.09113387376e-06
2.09910252168e-06
2.10695307825e-06
2.1147626569e-06
2.12257345258e-06
2.13039159616e-06
2.13823264894e-06
2.14609875851e-06
2.15398851057e-06
2.16190043697e-06
2.1698399457e-06
2.17780114249e-06
2.18579492188e-06
2.19381197206e-06
2.20185778013e-06
2.20992961927e-06
2.21802734092e-06
2.22615451917e-06
2.23431262578e-06
2.24249539809e-06
2.25071227086e-06
2.25895489499e-06
2.26722189369e-06
2.27553692319e-06
2.28385867216e-06
2.29221801732e-06
2.30061394854e-06
2.30903697867e-06
2.31749053232e-06
2.32597951234e-06
2.33449168108e-06
2.34303580468e-06
2.35162288877e-06
2.36023631314e-06
2.36887708098e-06
2.37757492282e-06
2.3862787111e-06
2.3950246609e-06
2.4037834532e-06
2.41261319294e-06
2.42145954316e-06
2.43034928324e-06
2.43924918631e-06
2.4482308344e-06
2.45720527e-06
2.46623528543e-06
2.4752689115e-06
2.48436768586e-06
2.49350511547e-06
2.50271604211e-06
2.51188940647e-06
2.52110747626e-06
2.5304096023e-06
2.53973097861e-06
2.54910651001e-06
2.55850750743e-06
2.56797964146e-06
2.5773951494e-06
2.58699345604e-06
2.59647043827e-06
2.07571478336e-06
2.0829928493e-06
2.09112763443e-06
2.09909624847e-06
2.10694658062e-06
2.11475626358e-06
2.12256727414e-06
2.13038554936e-06
2.13822636808e-06
2.14609268868e-06
2.15398245225e-06
2.16189461023e-06
2.16983407629e-06
2.17779546147e-06
2.18578908591e-06
2.19380633212e-06
2.20185235701e-06
2.20992414867e-06
2.21802212676e-06
2.22614939577e-06
2.23430733185e-06
2.2424907395e-06
2.25070557255e-06
2.25895435186e-06
2.26722456507e-06
2.2755285567e-06
2.28384608924e-06
2.2922085315e-06
2.30060838749e-06
2.30903303981e-06
2.3174833319e-06
2.32597496846e-06
2.33448503539e-06
2.34303038816e-06
2.35162466819e-06
2.36022849145e-06
2.36887351573e-06
2.37756430968e-06
2.38626576468e-06
2.39502265723e-06
2.40378588737e-06
2.41260561075e-06
2.42145029736e-06
2.43034311666e-06
2.43924554081e-06
2.44822974155e-06
2.45720516447e-06
2.46623210117e-06
2.47525604829e-06
2.48436526765e-06
2.49350320182e-06
2.50271003058e-06
2.51188652111e-06
2.5211010485e-06
2.5304046694e-06
2.53972682432e-06
2.54910476791e-06
2.55850789203e-06
2.56796857508e-06
2.57738716188e-06
2.58698013269e-06
2.59647098959e-06
2.07570911869e-06
2.08298717972e-06
2.09112188047e-06
2.09909044542e-06
2.10694045468e-06
2.11475029322e-06
2.12256144713e-06
2.13037983731e-06
2.13822040084e-06
2.14608706143e-06
2.15397649824e-06
2.16188919761e-06
2.16982851403e-06
2.17778986581e-06
2.18578369608e-06
2.19380108274e-06
2.2018468585e-06
2.20991940182e-06
2.21801696562e-06
2.22614449686e-06
2.23430266946e-06
2.24248539349e-06
2.25070140976e-06
2.25894795262e-06
2.26721758898e-06
2.2755266463e-06
2.28384316829e-06
2.29220262925e-06
2.30060181068e-06
2.30903125521e-06
2.31747997704e-06
2.32596980656e-06
2.33447679607e-06
2.34302339722e-06
2.35161362714e-06
2.36022377808e-06
2.36886505056e-06
2.3775582711e-06
2.3862649563e-06
2.39501612862e-06
2.40378048248e-06
2.41260540555e-06
2.42144257772e-06
2.43033426861e-06
2.43924049104e-06
2.4482264495e-06
2.45720084429e-06
2.46622540294e-06
2.47525437795e-06
2.4843593729e-06
2.49349554706e-06
2.50270847318e-06
2.51187875056e-06
2.52109864358e-06
2.5304017529e-06
2.53971659382e-06
2.54909999963e-06
2.55849435505e-06
2.56797080866e-06
2.57738672235e-06
2.58698366244e-06
2.59646480934e-06
2.075703905e-06
2.08298195476e-06
2.09111657356e-06
2.09908503131e-06
2.10693477798e-06
2.11474459112e-06
2.12255605476e-06
2.13037424965e-06
2.13821490557e-06
2.14608148952e-06
2.15397095497e-06
2.16188386185e-06
2.16982321959e-06
2.17778454631e-06
2.18577851791e-06
2.19379585908e-06
2.20184194832e-06
2.20991459943e-06
2.21801219422e-06
2.22613970215e-06
2.23429797954e-06
2.24248040579e-06
2.25069737931e-06
2.25894079009e-06
2.26721027951e-06
2.27551966751e-06
2.28384378067e-06
2.29219946453e-06
2.30059556685e-06
2.30902214175e-06
2.31747548499e-06
2.32596337898e-06
2.33447639504e-06
2.3430139202e-06
2.35160972339e-06
2.3602201766e-06
2.36886101806e-06
2.37755689592e-06
2.38625879972e-06
2.39501050011e-06
2.40377457923e-06
2.41259733222e-06
2.42143799945e-06
2.43033062429e-06
2.43923637306e-06
2.44822203743e-06
2.45719356901e-06
2.46621901923e-06
2.47524742963e-06
2.48435613471e-06
2.49349341837e-06
2.50270093337e-06
2.51187405239e-06
2.52109615446e-06
2.53039282652e-06
2.53971518871e-06
2.54909287634e-06
2.55849685398e-06
2.56796297015e-06
2.57737922344e-06
2.58697631787e-06
2.59645704705e-06
2.07569905262e-06
2.08297708864e-06
2.09111160036e-06
2.09908001891e-06
2.10692937217e-06
2.11473929911e-06
2.12255077915e-06
2.13036903138e-06
2.1382094682e-06
2.14607611456e-06
2.15396560676e-06
2.16187867962e-06
2.16981799603e-06
2.17777953197e-06
2.18577328431e-06
2.19379100276e-06
2.20183709722e-06
2.20990991684e-06
2.21800751753e-06
2.22613492525e-06
2.23429347448e-06
2.24247540131e-06
2.25069270622e-06
2.25893467869e-06
2.26720315974e-06
2.27551579206e-06
2.28383935649e-06
2.29219567962e-06
2.30059224662e-06
2.30901195731e-06
2.31746570519e-06
2.32596134625e-06
2.3344707633e-06
2.3430142557e-06
2.3516050561e-06
2.36021278276e-06
2.36885534303e-06
2.37754400899e-06
2.38625402955e-06
2.39500939179e-06
2.40377326132e-06
2.41259169563e-06
2.42143682826e-06
2.43032693168e-06
2.43923061293e-06
2.44821630027e-06
2.45718987528e-06
2.46621781869e-06
2.47524544662e-06
2.4843471138e-06
2.49348562818e-06
2.50269855206e-06
2.51187364437e-06
2.52109075129e-06
2.53038785748e-06
2.53971155971e-06
2.54909019916e-06
2.55848692877e-06
2.56795676085e-06
2.57737349162e-06
2.58696735254e-06
2.59645766606e-06
2.07569444116e-06
2.08297245401e-06
2.09110686985e-06
2.09907521496e-06
2.10692429504e-06
2.11473419932e-06
2.12254567122e-06
2.1303639501e-06
2.1382040465e-06
2.14607093683e-06
2.15396033299e-06
2.16187349503e-06
2.16981302755e-06
2.17777434354e-06
2.18576846184e-06
2.19378598066e-06
2.20183242166e-06
2.20990518141e-06
2.21800292966e-06
2.22613013301e-06
2.23428847665e-06
2.24247057627e-06
2.25068728739e-06
2.25893075741e-06
2.26719904842e-06
2.27551164628e-06
2.28383289056e-06
2.29218902072e-06
2.30058540666e-06
2.30900857502e-06
2.31746483672e-06
2.32595642327e-06
2.33446225625e-06
2.34300643739e-06
2.35159721714e-06
2.36020963593e-06
2.36885441717e-06
2.37754032823e-06
2.38624720308e-06
2.3950040924e-06
2.40376653519e-06
2.41258571205e-06
2.42142717212e-06
2.43031960465e-06
2.43922816827e-06
2.44821151566e-06
2.45718146173e-06
2.46621031241e-06
2.47524225117e-06
2.48434847549e-06
2.4934847668e-06
2.50269212624e-06
2.51187093139e-06
2.52108402851e-06
2.53038676176e-06
2.53970972059e-06
2.54908032889e-06
2.5584794553e-06
2.56796017572e-06
2.57736851304e-06
2.58695986002e-06
2.59645027168e-06
2.07569004086e-06
2.08296802625e-06
2.09110233939e-06
2.09907063816e-06
2.10691943032e-06
2.11472933335e-06
2.12254069285e-06
2.13035888742e-06
2.13819884578e-06
2.1460657335e-06
2.15395507083e-06
2.16186858019e-06
2.1698078888e-06
2.1777693171e-06
2.18576352148e-06
2.19378121393e-06
2.20182750925e-06
2.20990055077e-06
2.21799784598e-06
2.22612531605e-06
2.23428351882e-06
2.24246517854e-06
2.25068232134e-06
2.25892444012e-06
2.26719403582e-06
2.27550367403e-06
2.28382709514e-06
2.29218471506e-06
2.3005824278e-06
2.30900470865e-06
2.31745951919e-06
2.3259506787e-06
2.33445780858e-06
2.3430005815e-06
2.35159474896e-06
2.3602042866e-06
2.36884593048e-06
2.37753695236e-06
2.38624030061e-06
2.39500066821e-06
2.40376257469e-06
2.41258168528e-06
2.421423797e-06
2.43031519996e-06
2.43921791756e-06
2.44820687435e-06
2.45717830603e-06
2.46620252392e-06
2.47523881863e-06
2.48434465823e-06
2.49348139169e-06
2.50268981741e-06
2.51186308017e-06
2.52108154859e-06
2.53037828112e-06
2.53969858494e-06
2.54908037095e-06
2.5584769017e-06
2.56795117526e-06
2.57736657179e-06
2.58695952094e-06
2.59644926865e-06
2.07568577984e-06
2.08296373697e-06
2.09109793388e-06
2.099066205e-06
2.10691473222e-06
2.11472461093e-06
2.12253575175e-06
2.13035396541e-06
2.13819363501e-06
2.14606077243e-06
2.15394979141e-06
2.16186365172e-06
2.16980273184e-06
2.17776448608e-06
2.18575855763e-06
2.19377614227e-06
2.20182279753e-06
2.20989540129e-06
2.2179929083e-06
2.22612009031e-06
2.23427803767e-06
2.24245999403e-06
2.25067668568e-06
2.25892019274e-06
2.26719039411e-06
2.27549861376e-06
2.28382064237e-06
2.29217684879e-06
2.30057698266e-06
2.30900099782e-06
2.3174512045e-06
2.32594481945e-06
2.33445308855e-06
2.34299636725e-06
2.35159086054e-06
2.36019835719e-06
2.36884003047e-06
2.37753122543e-06
2.38623986476e-06
2.39499254583e-06
2.40375660845e-06
2.41257795571e-06
2.42141773515e-06
2.43030855321e-06
2.43921667272e-06
2.44820040413e-06
2.45717516599e-06
2.46620270422e-06
2.47523150195e-06
2.48433677631e-06
2.49347446941e-06
2.50268457552e-06
2.51186169553e-06
2.52107347967e-06
2.53037850694e-06
2.53969872467e-06
2.54907350139e-06
2.55847151661e-06
2.56794369739e-06
2.57736161528e-06
2.58695566146e-06
2.59644200069e-06
2.07568167311e-06
2.08295960892e-06
2.09109363858e-06
2.09906197475e-06
2.10691013289e-06
2.11472009057e-06
2.12253096522e-06
2.13034917365e-06
2.13818867805e-06
2.14605588923e-06
2.15394463887e-06
2.16185870853e-06
2.16979780929e-06
2.17775942581e-06
2.18575362215e-06
2.1937712393e-06
2.20181747625e-06
2.2098903681e-06
2.21798751335e-06
2.22611466587e-06
2.23427245182e-06
2.24245461466e-06
2.25067119316e-06
2.2589141862e-06
2.26718408354e-06
2.27549230637e-06
2.28381707034e-06
2.29217391714e-06
2.300570317e-06
2.30899347584e-06
2.31744988393e-06
2.32593945732e-06
2.334448233e-06
2.3429908748e-06
2.35158046233e-06
2.36019422781e-06
2.36883729269e-06
2.37752418477e-06
2.38623324455e-06
2.3949888826e-06
2.40375060216e-06
2.41257362469e-06
2.42141805828e-06
2.4303062731e-06
2.43920570208e-06
2.44818694724e-06
2.45717002984e-06
2.46619954133e-06
2.47522590508e-06
2.4843325199e-06
2.49347277336e-06
2.50268226747e-06
2.5118575816e-06
2.52107070199e-06
2.53037668728e-06
2.53969411261e-06
2.5490698368e-06
2.55846514255e-06
2.56794108699e-06
2.57735581766e-06
2.58695386091e-06
2.59643214757e-06
2.07567774412e-06
2.08295564847e-06
2.09108949704e-06
2.09905789455e-06
2.1069057464e-06
2.11471573835e-06
2.12252638737e-06
2.13034466282e-06
2.13818404423e-06
2.14605104274e-06
2.15393982696e-06
2.16185388719e-06
2.16979280795e-06
2.17775471626e-06
2.18574834989e-06
2.19376634131e-06
2.20181209073e-06
2.20988497369e-06
2.21798187106e-06
2.22610927729e-06
2.23426695495e-06
2.2424488081e-06
2.25066548901e-06
2.25890955996e-06
2.26718055976e-06
2.27548902233e-06
2.28381157603e-06
2.29216563262e-06
2.30056471186e-06
2.30898820551e-06
2.31744238898e-06
2.3259327951e-06
2.33444487922e-06
2.34298491146e-06
2.35157498759e-06
2.36018877467e-06
2.36883335526e-06
2.37751951684e-06
2.38622752637e-06
2.39498138616e-06
2.40374633295e-06
2.41256819416e-06
2.42141248709e-06
2.43029954939e-06
2.43920367296e-06
2.44819223991e-06
2.4571683121e-06
2.46618673991e-06
2.4752209698e-06
2.4843318807e-06
2.4934659162e-06
2.50267316534e-06
2.51184960756e-06
2.52106707263e-06
2.53036627212e-06
2.53969221874e-06
2.54906512388e-06
2.55845712234e-06
2.56793772802e-06
2.57735554907e-06
2.58694663971e-06
2.59643412917e-06
2.07567403893e-06
2.08295190117e-06
2.09108554215e-06
2.09905402089e-06
2.10690157389e-06
2.11471169523e-06
2.12252211457e-06
2.13034055389e-06
2.13817964983e-06
2.14604671512e-06
2.15393503484e-06
2.16184934427e-06
2.16978810073e-06
2.17774998842e-06
2.18574321858e-06
2.19376118289e-06
2.20180672728e-06
2.20987948154e-06
2.21797618743e-06
2.22610387909e-06
2.23426127946e-06
2.24244328588e-06
2.25066032312e-06
2.25890175136e-06
2.26717085614e-06
2.27548257419e-06
2.2838103397e-06
2.29216587176e-06
2.3005568153e-06
2.30898144029e-06
2.31743863499e-06
2.32592912057e-06
2.33443872825e-06
2.34297840467e-06
2.35157117731e-06
2.36018074347e-06
2.36882782432e-06
2.37751555621e-06
2.38622200891e-06
2.39497791126e-06
2.40374093466e-06
2.41256399017e-06
2.42140561664e-06
2.4302911462e-06
2.43920040471e-06
2.44818680026e-06
2.45715906158e-06
2.46618429091e-06
2.47521435475e-06
2.48432342553e-06
2.49346289318e-06
2.50267034926e-06
2.51184698625e-06
2.52106125094e-06
2.53036734166e-06
2.53968371875e-06
2.54906059107e-06
2.55845640919e-06
2.56793541311e-06
2.57735084249e-06
2.58693886332e-06
2.59643098242e-06
2.07567065348e-06
2.08294846724e-06
2.09108186304e-06
2.0990504728e-06
2.10689778328e-06
2.11470799769e-06
2.12251834438e-06
2.13033683048e-06
2.13817580339e-06
2.14604259381e-06
2.15393075173e-06
2.16184511037e-06
2.1697835077e-06
2.17774542044e-06
2.18573832539e-06
2.193756073e-06
2.20180129801e-06
2.20987408764e-06
2.21797066578e-06
2.22609865445e-06
2.2342556386e-06
2.2424382119e-06
2.25065293987e-06
2.25890069121e-06
2.26716942783e-06
2.27547726748e-06
2.28379786722e-06
2.29215388189e-06
2.30055400149e-06
2.30898178778e-06
2.31743298752e-06
2.32592062051e-06
2.33443152439e-06
2.34297664171e-06
2.35156770704e-06
2.36017517369e-06
2.36882472168e-06
2.37750936814e-06
2.38621901789e-06
2.39497309885e-06
2.40373608082e-06
2.41255534411e-06
2.42139781784e-06
2.43028971489e-06
2.43919386591e-06
2.44817616189e-06
2.45715597134e-06
2.4661807054e-06
2.4752090343e-06
2.4843192711e-06
2.49345817592e-06
2.50266443082e-06
2.51184061882e-06
2.52105614948e-06
2.53036465479e-06
2.53968201602e-06
2.54905659577e-06
2.55845161561e-06
2.56792653195e-06
2.57734427312e-06
2.58693917805e-06
2.59642368221e-06
2.07566765364e-06
2.0829454161e-06
2.09107852949e-06
2.09904737435e-06
2.10689439638e-06
2.11470482533e-06
2.12251491617e-06
2.13033377885e-06
2.13817226225e-06
2.14603905897e-06
2.15392683341e-06
2.16184110663e-06
2.16977930618e-06
2.17774121345e-06
2.18573352918e-06
2.19375128565e-06
2.20179613581e-06
2.20986894863e-06
2.21796553545e-06
2.22609362067e-06
2.23425028679e-06
2.24243277829e-06
2.25064870583e-06
2.2588920337e-06
2.2671634955e-06
2.27547379755e-06
2.28379332002e-06
2.29215121279e-06
2.30055158506e-06
2.30896952781e-06
2.31742270054e-06
2.32591652377e-06
2.33443030704e-06
2.34297187559e-06
2.35156430594e-06
2.3601713289e-06
2.36881692358e-06
2.37750817567e-06
2.38621461115e-06
2.39496237285e-06
2.40373023451e-06
2.41254964604e-06
2.42139254469e-06
2.43028794189e-06
2.4391947225e-06
2.44817340876e-06
2.45714934354e-06
2.4661747057e-06
2.47520878279e-06
2.48431073932e-06
2.49345051367e-06
2.50266366044e-06
2.51184114997e-06
2.52105138175e-06
2.53036232493e-06
2.53967212864e-06
2.54904925107e-06
2.55844759985e-06
2.56792267877e-06
2.57734174843e-06
2.58693015975e-06
2.59642516924e-06
2.60608090256e-06
2.61566520224e-06
2.62538872795e-06
2.63512368041e-06
2.6449338941e-06
2.65469359864e-06
2.66452387988e-06
2.67439923736e-06
2.6843861264e-06
2.69433949695e-06
2.70435433997e-06
2.71444809772e-06
2.72446032319e-06
2.73463286186e-06
2.74488852652e-06
2.75505533758e-06
2.76531002251e-06
2.77566538647e-06
2.78597581238e-06
2.79649905076e-06
2.80688315741e-06
2.81744449963e-06
2.82793925245e-06
2.83866364328e-06
2.84918766627e-06
2.85990566811e-06
2.87060057022e-06
2.88139485995e-06
2.8922579259e-06
2.90325479494e-06
2.91412504111e-06
2.92529993207e-06
2.93613993559e-06
2.94741457053e-06
2.9582678162e-06
2.96964863089e-06
2.98077290526e-06
2.99227200838e-06
3.00359299479e-06
3.01555111132e-06
3.02655771859e-06
3.0379372345e-06
3.05585224495e-06
3.02759026899e-06
2.97390884481e-06
2.9247405249e-06
2.91222610461e-06
2.91254544429e-06
2.91968725658e-06
2.92970194234e-06
2.93944973947e-06
2.94863527155e-06
2.95598881004e-06
2.96190364915e-06
2.9674815702e-06
2.97372982737e-06
2.98109577311e-06
2.98983233347e-06
3.00005447106e-06
3.01169431664e-06
3.02419524083e-06
3.03744993221e-06
3.05121242266e-06
2.60606701269e-06
2.61566564886e-06
2.62538853638e-06
2.63512059026e-06
2.6449248016e-06
2.65468848771e-06
2.66452291002e-06
2.67439705404e-06
2.68437794465e-06
2.69433444926e-06
2.70435392264e-06
2.71444618253e-06
2.72445576095e-06
2.73463668113e-06
2.74488570934e-06
2.75505167469e-06
2.76530621363e-06
2.77566016903e-06
2.78597027871e-06
2.79649480065e-06
2.80687052477e-06
2.8174420631e-06
2.82793577705e-06
2.83866178762e-06
2.84918539878e-06
2.85990300284e-06
2.87059452985e-06
2.88139164736e-06
2.89225279682e-06
2.90325470915e-06
2.91412674953e-06
2.92529807517e-06
2.93613519149e-06
2.94741092045e-06
2.95826228109e-06
2.96965049289e-06
2.98077374633e-06
2.99227438766e-06
3.00360036732e-06
3.01557049922e-06
3.02654589147e-06
3.03804315649e-06
3.05591673556e-06
3.02916354734e-06
2.97636711727e-06
2.92762080156e-06
2.91477602189e-06
2.9147757955e-06
2.9214243676e-06
2.93082187398e-06
2.93985876734e-06
2.9475170174e-06
2.95372526774e-06
2.95894077455e-06
2.9643596118e-06
2.97074673879e-06
2.97841944373e-06
2.98753750985e-06
2.99817414391e-06
3.01014170917e-06
3.02295496907e-06
3.036442505e-06
3.05042229097e-06
2.60606448491e-06
2.61565705936e-06
2.62538089544e-06
2.63511439113e-06
2.64492183542e-06
2.65468484336e-06
2.66452002342e-06
2.67439078793e-06
2.68437590723e-06
2.6943312519e-06
2.70435380228e-06
2.71443861077e-06
2.72445144895e-06
2.73463221325e-06
2.74488539594e-06
2.75504705186e-06
2.76529956119e-06
2.7756532779e-06
2.78595843565e-06
2.79648936855e-06
2.80685785234e-06
2.81744144652e-06
2.82793712346e-06
2.83866295354e-06
2.84918426415e-06
2.85989560997e-06
2.87059159439e-06
2.88139343651e-06
2.8922498431e-06
2.90325885359e-06
2.91412741609e-06
2.92529814221e-06
2.9361314047e-06
2.94740505874e-06
2.95825892272e-06
2.96965114278e-06
2.98077801519e-06
2.99227938709e-06
3.00360454262e-06
3.01558517942e-06
3.02653281697e-06
3.03816677427e-06
3.05597006347e-06
3.03066500207e-06
2.97885918961e-06
2.93066769924e-06
2.9175005803e-06
2.91715223513e-06
2.92320981637e-06
2.93181865115e-06
2.94004867054e-06
2.94588675326e-06
2.951211052e-06
2.95606424786e-06
2.96146127787e-06
2.96799483324e-06
2.975949243e-06
2.98544818757e-06
2.99651871242e-06
3.00877617528e-06
3.02186462738e-06
3.03557821554e-06
3.04971189854e-06
2.6060589946e-06
2.61565265386e-06
2.62537767485e-06
2.63511043737e-06
2.64491347238e-06
2.65467917977e-06
2.66451728684e-06
2.67438522735e-06
2.68437159594e-06
2.69432247658e-06
2.70434749255e-06
2.71443796851e-06
2.72444816508e-06
2.73462601658e-06
2.74488753919e-06
2.75504236572e-06
2.76529219063e-06
2.77564615543e-06
2.78595101801e-06
2.79648616903e-06
2.80685168616e-06
2.81743976146e-06
2.8279370732e-06
2.83865902281e-06
2.84918231283e-06
2.85989494055e-06
2.87058970513e-06
2.88139175151e-06
2.89224420321e-06
2.90325707009e-06
2.91412646036e-06
2.92529406874e-06
2.93612822671e-06
2.9474029618e-06
2.9582603068e-06
2.96965391438e-06
2.98077967915e-06
2.99228424727e-06
3.00360737134e-06
3.01558714231e-06
3.02652586916e-06
3.03831950974e-06
3.05601204631e-06
3.03208124818e-06
2.98137552747e-06
2.93387223025e-06
2.92039580957e-06
2.91965481903e-06
2.92502894653e-06
2.93233009514e-06
2.93996947147e-06
2.94425358293e-06
2.94863549893e-06
2.95316930052e-06
2.9586525919e-06
2.96544031229e-06
2.97374747413e-06
2.98366313634e-06
2.99505710787e-06
3.00755850539e-06
3.02087292532e-06
3.03474999582e-06
3.04902090817e-06
2.60606294409e-06
2.61564397795e-06
2.62536769782e-06
2.63510135715e-06
2.64490636214e-06
2.65467556307e-06
2.66451337765e-06
2.67437892265e-06
2.68437084302e-06
2.69432133515e-06
2.70434493099e-06
2.71442759959e-06
2.72444119343e-06
2.73462337755e-06
2.74488227204e-06
2.75503728007e-06
2.76529422608e-06
2.77564230216e-06
2.78594777532e-06
2.79648134105e-06
2.80684648795e-06
2.81743563921e-06
2.82793286899e-06
2.83865475769e-06
2.84917872238e-06
2.8598914022e-06
2.87058507712e-06
2.88139007367e-06
2.89224148439e-06
2.90325069325e-06
2.91412826795e-06
2.92529353703e-06
2.93612775695e-06
2.9474006949e-06
2.95825882906e-06
2.96965146555e-06
2.98078297278e-06
2.99229116006e-06
3.00361270394e-06
3.0155865586e-06
3.02652390428e-06
3.03848931249e-06
3.05602620993e-06
3.03339763741e-06
2.98390528384e-06
2.93723312485e-06
2.92347931571e-06
2.92226854244e-06
2.92593207471e-06
2.93387861543e-06
2.93919068616e-06
2.94267864203e-06
2.94611986806e-06
2.95038062384e-06
2.95596629674e-06
2.96307755433e-06
2.97180310555e-06
2.98211584247e-06
2.99379556247e-06
3.00649539978e-06
3.01998774705e-06
3.03400502258e-06
3.04835318374e-06
2.60605575055e-06
2.61564282334e-06
2.6253660241e-06
2.63509764588e-06
2.64490332147e-06
2.65466976026e-06
2.6645091466e-06
2.67437373945e-06
2.68436429186e-06
2.69431366909e-06
2.70433856745e-06
2.71442570891e-06
2.72444136127e-06
2.73461644947e-06
2.74487979934e-06
2.75503237333e-06
2.76528912139e-06
2.77563564604e-06
2.78594385053e-06
2.79647631078e-06
2.80684672726e-06
2.817430876e-06
2.82793039878e-06
2.83865039183e-06
2.84917619435e-06
2.85988688957e-06
2.87057891259e-06
2.88138619707e-06
2.89223516528e-06
2.90325850151e-06
2.91412732295e-06
2.92528863262e-06
2.93612715671e-06
2.94740096095e-06
2.95825960905e-06
2.96964903034e-06
2.98078247402e-06
2.99229170306e-06
3.00361825149e-06
3.01557521287e-06
3.02653153447e-06
3.03867008823e-06
3.05600637542e-06
3.03460605945e-06
2.98643363798e-06
2.94073648927e-06
2.92672792192e-06
2.92498016945e-06
2.9282263964e-06
2.93404764776e-06
2.93801415326e-06
2.94084223687e-06
2.94375339587e-06
2.94773517606e-06
2.95342096532e-06
2.96087703163e-06
2.96998464674e-06
2.98064464019e-06
2.99259563118e-06
3.00549041064e-06
3.01919278545e-06
3.03337210549e-06
3.04782758392e-06
2.60605366828e-06
2.61563553799e-06
2.62536138782e-06
2.63509187466e-06
2.64490336904e-06
2.65466169891e-06
2.66450232006e-06
2.67436385986e-06
2.68435806563e-06
2.69430907637e-06
2.70433457262e-06
2.71442126939e-06
2.72443652803e-06
2.73461401381e-06
2.74487505993e-06
2.75502812324e-06
2.76528563998e-06
2.77563142286e-06
2.78594344313e-06
2.79647048268e-06
2.80684407302e-06
2.81742602386e-06
2.82792873662e-06
2.83864520477e-06
2.84917555859e-06
2.85988532927e-06
2.87056822116e-06
2.88138037474e-06
2.89223033191e-06
2.90325659451e-06
2.91413107819e-06
2.92528989145e-06
2.9361274336e-06
2.94739608165e-06
2.95825864543e-06
2.96964242384e-06
2.98078429826e-06
2.99229232885e-06
3.00362539679e-06
3.01556068219e-06
3.02654869525e-06
3.03887226184e-06
3.05595026886e-06
3.03569711898e-06
2.98895201821e-06
2.94437695852e-06
2.93015654856e-06
2.92780125245e-06
2.93030567417e-06
2.93413369803e-06
2.93691590801e-06
2.93867740065e-06
2.94152996357e-06
2.94509782485e-06
2.95090919774e-06
2.95877724802e-06
2.96837646973e-06
2.97947899379e-06
2.99175633942e-06
3.0048622566e-06
3.01865430111e-06
3.03286302733e-06
3.04728155829e-06
2.60605194322e-06
2.61562991168e-06
2.62535314663e-06
2.63508979515e-06
2.64490303727e-06
2.65465402958e-06
2.66449903666e-06
2.67435523161e-06
2.68434924768e-06
2.69429882663e-06
2.70432925876e-06
2.71441940723e-06
2.72443416049e-06
2.73460990724e-06
2.74486986142e-06
2.75502080485e-06
2.76528476692e-06
2.77562648057e-06
2.78594151256e-06
2.79646907849e-06
2.80684780087e-06
2.81742222245e-06
2.82792075986e-06
2.83863666931e-06
2.84917029891e-06
2.85987758459e-06
2.87056566905e-06
2.88138051014e-06
2.89222643927e-06
2.90325667185e-06
2.91412951329e-06
2.92528612842e-06
2.93612896784e-06
2.94739328039e-06
2.95826652862e-06
2.96964188923e-06
2.98078819646e-06
2.99229711477e-06
3.00362905087e-06
3.01553262818e-06
3.02657555041e-06
3.03908041471e-06
3.05586425841e-06
3.03667166444e-06
2.99146067963e-06
2.94813765852e-06
2.93374321423e-06
2.93073862435e-06
2.93200451708e-06
2.93417866823e-06
2.93552061559e-06
2.93647480548e-06
2.9389353816e-06
2.942726531e-06
2.94871957607e-06
2.95695427049e-06
2.96699128802e-06
2.97849812024e-06
2.99108063464e-06
3.00436626177e-06
3.01822414719e-06
3.03245814758e-06
3.0468912811e-06
2.60604340524e-06
2.61562358298e-06
2.62534889549e-06
2.63508291041e-06
2.64489447056e-06
2.65465291756e-06
2.66449626107e-06
2.67435108833e-06
2.68434213574e-06
2.69429257663e-06
2.70432505327e-06
2.71441802596e-06
2.72443610008e-06
2.73460218753e-06
2.74486768317e-06
2.75501603416e-06
2.76527686078e-06
2.77561957682e-06
2.78593929096e-06
2.7964628117e-06
2.80684477226e-06
2.81741587698e-06
2.8279173502e-06
2.83863451582e-06
2.84916921254e-06
2.85987216136e-06
2.87055769085e-06
2.88137602087e-06
2.89221971393e-06
2.90326006121e-06
2.91412867024e-06
2.92527932879e-06
2.93612981588e-06
2.94739143487e-06
2.95827002725e-06
2.96963862277e-06
2.98078802426e-06
2.99228940683e-06
3.00363899886e-06
3.01550626757e-06
3.02661381584e-06
3.03930535368e-06
3.05572446143e-06
3.03749892802e-06
2.9939257157e-06
2.95199675791e-06
2.9374505747e-06
2.9337633877e-06
2.93361963803e-06
2.93424683286e-06
2.9342118622e-06
2.93432593841e-06
2.93648959965e-06
2.94058613055e-06
2.94666728313e-06
2.95527301095e-06
2.96574250497e-06
2.97760245012e-06
2.99042559846e-06
3.00386063328e-06
3.01774357912e-06
3.03198925326e-06
3.04639508966e-06
2.60603866857e-06
2.61562038592e-06
2.62534604899e-06
2.63507681172e-06
2.64489179845e-06
2.65464929724e-06
2.66449398231e-06
2.67434201557e-06
2.68433740596e-06
2.69428519827e-06
2.70432044335e-06
2.7144132297e-06
2.72443259336e-06
2.73460323037e-06
2.74486322539e-06
2.75500873753e-06
2.76527278907e-06
2.77561327517e-06
2.78593830393e-06
2.79645761619e-06
2.80684582243e-06
2.81741177401e-06
2.82791114898e-06
2.83862560781e-06
2.84916224006e-06
2.8598698664e-06
2.87055161359e-06
2.88137587967e-06
2.89221327999e-06
2.90325914726e-06
2.91412678032e-06
2.92527794804e-06
2.93613216602e-06
2.94738675799e-06
2.95827352514e-06
2.96963269966e-06
2.98079229803e-06
2.99228958067e-06
3.00364470248e-06
3.01547264568e-06
3.02665552983e-06
3.03952448841e-06
3.05554966809e-06
3.03819517993e-06
2.99636428474e-06
2.9559570173e-06
2.94130751814e-06
2.93684939736e-06
2.93517192684e-06
2.93410090663e-06
2.93246980818e-06
2.93210225689e-06
2.93421989238e-06
2.93886108186e-06
2.94492707407e-06
2.95384265259e-06
2.96473456544e-06
2.9769324325e-06
2.98996077971e-06
3.00349946081e-06
3.01742558318e-06
3.03168460158e-06
3.0460759419e-06
2.60603195651e-06
2.61561726648e-06
2.62534263946e-06
2.63507217491e-06
2.64488555912e-06
2.65464645047e-06
2.66448966682e-06
2.6743384844e-06
2.68432855836e-06
2.69427684773e-06
2.7043192911e-06
2.71441053726e-06
2.72442502518e-06
2.73459360969e-06
2.74486207797e-06
2.75500335044e-06
2.76526818074e-06
2.77560490117e-06
2.78593300821e-06
2.79645029262e-06
2.80684807498e-06
2.81740571032e-06
2.82790820373e-06
2.83862092964e-06
2.84915964498e-06
2.85986965026e-06
2.87054853718e-06
2.88137215987e-06
2.89220319137e-06
2.90326622152e-06
2.91412589606e-06
2.9252722599e-06
2.93613383864e-06
2.9473869612e-06
2.95827584211e-06
2.96963014736e-06
2.98079109761e-06
2.99227907615e-06
3.00365242541e-06
3.01543517224e-06
3.02671081485e-06
3.03974837864e-06
3.05532495352e-06
3.03874080167e-06
2.99874728747e-06
2.95997944164e-06
2.94531684256e-06
2.93990399658e-06
2.93673463034e-06
2.93441401372e-06
2.93075344179e-06
2.92991767593e-06
2.93206110056e-06
2.9371165659e-06
2.9433384686e-06
2.95257725333e-06
2.96385066248e-06
2.97635550025e-06
2.98961049689e-06
3.00327442691e-06
3.01726951077e-06
3.03153784914e-06
3.04588477761e-06
2.60603047218e-06
2.61560995549e-06
2.62533864504e-06
2.63506701364e-06
2.64488600609e-06
2.65463852693e-06
2.66448582058e-06
2.67433195599e-06
2.68432192708e-06
2.69426852907e-06
2.70431268077e-06
2.71440517127e-06
2.72442799381e-06
2.7345886589e-06