/*--------------------------------*- C++ -*----------------------------------*\
  =========                 |
  \\      /  F ield         | OpenFOAM: The Open Source CFD Toolbox
   \\    /   O peration     | Website:  https://openfoam.org
    \\  /    A nd           | Version:  6
     \\/     M anipulation  |
\*---------------------------------------------------------------------------*/
FoamFile
{
    version     2.0;
    format      ascii;
    class       volScalarField;
    location    "0.0002";
    object      H2;
}
// * * * * * * * * * * * * * * * * * * * * * * * * * * * * * * * * * * * * * //

dimensions      [0 0 0 0 0 0 0];

internalField   nonuniform List<scalar> 
208908
(
9.95157540893e-05
9.95013547243e-05
9.94854523219e-05
9.94701054981e-05
9.94552029136e-05
9.94406063166e-05
9.9426197681e-05
9.94119987051e-05
9.93979285043e-05
9.93840302618e-05
9.93702585233e-05
9.93566475529e-05
9.9343164486e-05
9.93298175657e-05
9.93165921055e-05
9.93035043188e-05
9.92905235822e-05
9.92776859879e-05
9.9264928844e-05
9.92523162062e-05
9.92398001372e-05
9.92273899205e-05
9.92150681072e-05
9.92028555018e-05
9.91907341566e-05
9.91787109565e-05
9.91668106608e-05
9.91549278736e-05
9.91431551633e-05
9.91314664472e-05
9.91198776492e-05
9.91083393923e-05
9.90968417807e-05
9.90854283403e-05
9.90741149762e-05
9.90628441664e-05
9.9051633364e-05
9.90404173938e-05
9.90293092458e-05
9.90181732744e-05
9.90072909744e-05
9.89962840391e-05
9.89853515972e-05
9.89743348111e-05
9.896352127e-05
9.89525539926e-05
9.89419892933e-05
9.89310524824e-05
9.89203334004e-05
9.8909465769e-05
9.88988289277e-05
9.88878799519e-05
9.88774533962e-05
9.88667017458e-05
9.8855851779e-05
9.88450383115e-05
9.88344491462e-05
9.882358062e-05
9.88129383571e-05
9.88022425446e-05
9.87915974392e-05
9.87806107033e-05
9.95157648523e-05
9.95013655442e-05
9.94854629428e-05
9.94701166278e-05
9.94552137649e-05
9.94406169609e-05
9.94262083551e-05
9.9412008226e-05
9.93979398432e-05
9.93840395111e-05
9.9370269492e-05
9.93566568147e-05
9.93431744058e-05
9.93298266269e-05
9.93166024302e-05
9.93035133134e-05
9.92905333992e-05
9.92776945202e-05
9.9264937517e-05
9.92523263541e-05
9.92398088626e-05
9.92273974338e-05
9.92150768794e-05
9.9202861247e-05
9.91907461389e-05
9.91787183214e-05
9.91668170787e-05
9.91549444521e-05
9.91431659056e-05
9.91314738382e-05
9.9119877306e-05
9.91083415735e-05
9.90968619392e-05
9.90854380207e-05
9.90741239618e-05
9.90628449845e-05
9.90516458971e-05
9.9040429404e-05
9.90293268775e-05
9.90182018806e-05
9.90072892981e-05
9.89962748464e-05
9.89853558749e-05
9.8974328773e-05
9.89635349511e-05
9.89525683668e-05
9.89420056583e-05
9.89310593168e-05
9.89203505484e-05
9.89094742187e-05
9.88988382085e-05
9.88878847566e-05
9.88774599018e-05
9.88667087925e-05
9.88558565298e-05
9.88450725755e-05
9.8834464462e-05
9.88235885603e-05
9.88129732514e-05
9.8802243424e-05
9.87915839838e-05
9.87805971903e-05
9.95157746366e-05
9.95013752605e-05
9.94854729819e-05
9.94701262659e-05
9.94552241767e-05
9.94406270084e-05
9.94262176136e-05
9.94120177527e-05
9.93979495552e-05
9.93840489966e-05
9.93702785966e-05
9.93566658755e-05
9.93431834372e-05
9.93298351164e-05
9.9316611367e-05
9.93035224444e-05
9.92905410713e-05
9.92777032479e-05
9.92649456302e-05
9.92523345756e-05
9.92398160215e-05
9.92274058327e-05
9.92150833109e-05
9.92028731637e-05
9.9190750289e-05
9.91787315798e-05
9.91668212387e-05
9.91549478526e-05
9.9143167646e-05
9.91314805746e-05
9.91198893247e-05
9.91083666146e-05
9.90968584458e-05
9.90854415332e-05
9.90741305225e-05
9.90628557369e-05
9.90516520214e-05
9.9040428663e-05
9.90293400299e-05
9.90182117832e-05
9.90072910895e-05
9.89962853696e-05
9.89853756095e-05
9.89743505461e-05
9.89635313532e-05
9.89525733813e-05
9.89420070883e-05
9.89310691652e-05
9.89203731961e-05
9.8909479386e-05
9.88988392599e-05
9.88878927239e-05
9.8877480491e-05
9.88667189372e-05
9.88558708986e-05
9.88450702494e-05
9.88344637115e-05
9.88235970205e-05
9.88129606157e-05
9.88022497452e-05
9.87916130794e-05
9.87806229051e-05
9.95157833441e-05
9.95013839888e-05
9.94854817988e-05
9.94701351486e-05
9.94552335764e-05
9.94406362799e-05
9.94262257634e-05
9.94120270136e-05
9.93979580428e-05
9.93840574122e-05
9.93702876019e-05
9.93566736846e-05
9.93431911453e-05
9.93298444479e-05
9.93166181561e-05
9.93035303216e-05
9.92905500431e-05
9.92777091607e-05
9.92649534659e-05
9.92523422489e-05
9.92398216424e-05
9.92274136168e-05
9.92150943661e-05
9.92028653366e-05
9.91907670998e-05
9.91787389674e-05
9.91668335569e-05
9.91549659779e-05
9.91431854479e-05
9.91314871476e-05
9.91198889892e-05
9.91083735187e-05
9.90968729069e-05
9.90854529297e-05
9.90741160958e-05
9.90628774093e-05
9.90516643903e-05
9.90404503556e-05
9.90293366821e-05
9.90182091258e-05
9.90073110179e-05
9.89963035961e-05
9.89853648504e-05
9.89743512553e-05
9.89635368259e-05
9.89525713389e-05
9.89420120509e-05
9.89310657356e-05
9.89203626428e-05
9.89094792348e-05
9.88988601803e-05
9.8887917292e-05
9.88774802535e-05
9.88667288313e-05
9.8855877624e-05
9.88450775795e-05
9.88344736425e-05
9.88235877404e-05
9.88130053806e-05
9.88022792411e-05
9.87916043964e-05
9.878064361e-05
9.95157909658e-05
9.95013916311e-05
9.94854894939e-05
9.94701433074e-05
9.9455241645e-05
9.94406450571e-05
9.94262331768e-05
9.94120352722e-05
9.93979653763e-05
9.93840664875e-05
9.93702940301e-05
9.93566821859e-05
9.93431985341e-05
9.93298511669e-05
9.93166259439e-05
9.93035385133e-05
9.92905546381e-05
9.92777183384e-05
9.92649584108e-05
9.92523489763e-05
9.92398294041e-05
9.9227418803e-05
9.92150999409e-05
9.92028774217e-05
9.91907707899e-05
9.91787396132e-05
9.91668456354e-05
9.91549771311e-05
9.91431923262e-05
9.91314789742e-05
9.91199152336e-05
9.91083784568e-05
9.90968865894e-05
9.90854630235e-05
9.90741390198e-05
9.90628688935e-05
9.90516714377e-05
9.90404665207e-05
9.90293479547e-05
9.90182227248e-05
9.90073044303e-05
9.89962884474e-05
9.89853803537e-05
9.89743854253e-05
9.89635541981e-05
9.89525826635e-05
9.89420265229e-05
9.89310816142e-05
9.89203766089e-05
9.89094874314e-05
9.88988446856e-05
9.88879057538e-05
9.88774970011e-05
9.88667471151e-05
9.88558961204e-05
9.88451122136e-05
9.8834464409e-05
9.88236156705e-05
9.88129634011e-05
9.88022667899e-05
9.87916311281e-05
9.8780651899e-05
9.95157976235e-05
9.95013983032e-05
9.94854964198e-05
9.94701501144e-05
9.94552497046e-05
9.94406518503e-05
9.94262414479e-05
9.94120409966e-05
9.93979741543e-05
9.93840729946e-05
9.93703017127e-05
9.93566886871e-05
9.93432059472e-05
9.93298578007e-05
9.93166332008e-05
9.93035441096e-05
9.92905618624e-05
9.92777242959e-05
9.92649646505e-05
9.92523545618e-05
9.92398354758e-05
9.92274254661e-05
9.92151062475e-05
9.92028882388e-05
9.91907713412e-05
9.91787567294e-05
9.91668433772e-05
9.91549718821e-05
9.91431956211e-05
9.91315006352e-05
9.9119925666e-05
9.91083902617e-05
9.90968784073e-05
9.90854710016e-05
9.90741510387e-05
9.90628937418e-05
9.90516780557e-05
9.9040453519e-05
9.90293622013e-05
9.90182320346e-05
9.90073363004e-05
9.89963102965e-05
9.89853917144e-05
9.89743789247e-05
9.89635754607e-05
9.89525874623e-05
9.89420315594e-05
9.89310878817e-05
9.89203862372e-05
9.89094954352e-05
9.88988771182e-05
9.88879287854e-05
9.88774955648e-05
9.88667312385e-05
9.88559043551e-05
9.88451100845e-05
9.88344739535e-05
9.88236073261e-05
9.88129848762e-05
9.88022949209e-05
9.87916412431e-05
9.87806627659e-05
9.95158035181e-05
9.95014043516e-05
9.94855022246e-05
9.94701568536e-05
9.94552561242e-05
9.94406590015e-05
9.94262477592e-05
9.94120479988e-05
9.93979811284e-05
9.93840793992e-05
9.9370309367e-05
9.9356694874e-05
9.93432122781e-05
9.93298654123e-05
9.93166380652e-05
9.93035513542e-05
9.92905678622e-05
9.92777298643e-05
9.92649705265e-05
9.92523593665e-05
9.92398434241e-05
9.92274314239e-05
9.92151105704e-05
9.92028988605e-05
9.91907778399e-05
9.91787601244e-05
9.91668552377e-05
9.91549771457e-05
9.91431966352e-05
9.91315191525e-05
9.91199275191e-05
9.91083929396e-05
9.90968939302e-05
9.90854744992e-05
9.90741520227e-05
9.90628889284e-05
9.90516856435e-05
9.90404931926e-05
9.90293514993e-05
9.90182271277e-05
9.90073302717e-05
9.89963203091e-05
9.89854022712e-05
9.89743813482e-05
9.89635700761e-05
9.8952590751e-05
9.89420376628e-05
9.89310834095e-05
9.89204013505e-05
9.89095213783e-05
9.8898876772e-05
9.88879222688e-05
9.88775087949e-05
9.88667488494e-05
9.88559169432e-05
9.88451151592e-05
9.88344944345e-05
9.88236307376e-05
9.88130010973e-05
9.88023092585e-05
9.87916285395e-05
9.8780655187e-05
9.95158088843e-05
9.95014097562e-05
9.94855078856e-05
9.94701624491e-05
9.9455262695e-05
9.94406650488e-05
9.94262540199e-05
9.94120549629e-05
9.93979870022e-05
9.93840865798e-05
9.9370316477e-05
9.93566998773e-05
9.9343220162e-05
9.93298701886e-05
9.93166458712e-05
9.93035558323e-05
9.92905746408e-05
9.92777345853e-05
9.92649775058e-05
9.92523648723e-05
9.92398487657e-05
9.92274386275e-05
9.92151189204e-05
9.9202901391e-05
9.91907882053e-05
9.91787639612e-05
9.91668653652e-05
9.9154989008e-05
9.91432106353e-05
9.91315202116e-05
9.9119935671e-05
9.91083935579e-05
9.90969072794e-05
9.90854896307e-05
9.90741741343e-05
9.90628917734e-05
9.90516892574e-05
9.90404874859e-05
9.90293793134e-05
9.90182394009e-05
9.90073406294e-05
9.89963252066e-05
9.89854087186e-05
9.89744003685e-05
9.89635775701e-05
9.8952600874e-05
9.89420416487e-05
9.89311061624e-05
9.89203934293e-05
9.89095036223e-05
9.88988891906e-05
9.88879446744e-05
9.88775218719e-05
9.88667565178e-05
9.8855902331e-05
9.88451026894e-05
9.88345183205e-05
9.8823662323e-05
9.88130197529e-05
9.88023114172e-05
9.87916386272e-05
9.87806734243e-05
9.95158137904e-05
9.95014146751e-05
9.94855131213e-05
9.94701676174e-05
9.9455268578e-05
9.94406708005e-05
9.94262601612e-05
9.94120608963e-05
9.93979940947e-05
9.93840924128e-05
9.93703228257e-05
9.93567069683e-05
9.93432258784e-05
9.93298758482e-05
9.93166521308e-05
9.93035624331e-05
9.92905795292e-05
9.92777413611e-05
9.92649817853e-05
9.92523723526e-05
9.9239856569e-05
9.92274441561e-05
9.92151242758e-05
9.920291282e-05
9.91907906777e-05
9.91787793154e-05
9.9166865364e-05
9.91549923937e-05
9.91432178988e-05
9.91315257278e-05
9.9119940372e-05
9.91083993182e-05
9.90969136935e-05
9.90855011245e-05
9.9074175691e-05
9.9062909525e-05
9.90516941841e-05
9.90404889062e-05
9.90293781294e-05
9.90182447598e-05
9.90073620925e-05
9.89963369529e-05
9.89854155433e-05
9.89744001286e-05
9.89635869278e-05
9.89526146041e-05
9.89420695027e-05
9.89311307671e-05
9.89204085905e-05
9.89095068362e-05
9.88988772038e-05
9.88879276999e-05
9.88775316816e-05
9.88667645719e-05
9.8855938896e-05
9.88451538671e-05
9.88345202325e-05
9.88236525574e-05
9.88129927116e-05
9.88022902477e-05
9.87916549352e-05
9.87806888878e-05
9.95158183841e-05
9.95014192422e-05
9.94855182284e-05
9.94701722772e-05
9.94552741793e-05
9.94406763937e-05
9.94262658033e-05
9.94120671833e-05
9.93979996707e-05
9.93840996771e-05
9.93703282874e-05
9.93567135277e-05
9.93432312037e-05
9.93298829622e-05
9.93166581661e-05
9.93035666091e-05
9.92905877764e-05
9.92777455397e-05
9.92649900791e-05
9.92523784766e-05
9.92398623406e-05
9.92274518908e-05
9.92151335443e-05
9.9202915875e-05
9.91908001722e-05
9.91787827046e-05
9.91668762196e-05
9.91550086563e-05
9.91432262373e-05
9.91315274006e-05
9.91199448166e-05
9.91084140657e-05
9.90969276572e-05
9.90855069751e-05
9.90741782022e-05
9.9062905855e-05
9.90517048382e-05
9.90405065996e-05
9.90293969779e-05
9.90182593877e-05
9.90073607286e-05
9.89963318257e-05
9.89854148624e-05
9.89744130248e-05
9.89635963694e-05
9.89526224348e-05
9.89420634106e-05
9.89311124013e-05
9.89204123589e-05
9.89095271746e-05
9.88989023138e-05
9.88879533807e-05
9.8877541187e-05
9.88667852783e-05
9.88559225365e-05
9.88451227179e-05
9.8834522277e-05
9.88236676411e-05
9.88130179822e-05
9.88023229599e-05
9.87916664999e-05
9.87807037572e-05
9.95158226423e-05
9.95014236355e-05
9.94855226184e-05
9.94701771704e-05
9.94552789045e-05
9.94406819137e-05
9.94262712592e-05
9.94120725821e-05
9.93980055723e-05
9.93841059651e-05
9.93703339498e-05
9.9356719194e-05
9.93432383728e-05
9.93298873522e-05
9.93166649339e-05
9.93035734335e-05
9.92905923355e-05
9.9277753428e-05
9.92649970196e-05
9.92523851154e-05
9.92398691394e-05
9.92274609964e-05
9.92151385747e-05
9.9202926756e-05
9.91908044911e-05
9.91787939604e-05
9.91668797349e-05
9.9155009333e-05
9.91432320372e-05
9.91315458321e-05
9.9119951199e-05
9.91084186995e-05
9.90969229735e-05
9.90855148845e-05
9.90741975615e-05
9.90629196712e-05
9.90517057626e-05
9.90405161888e-05
9.90293899903e-05
9.90182602754e-05
9.90073610677e-05
9.89963456967e-05
9.89854393556e-05
9.89744162269e-05
9.89636027344e-05
9.89526608034e-05
9.89420625353e-05
9.89311142816e-05
9.89204077304e-05
9.89095379725e-05
9.88989145876e-05
9.8887961777e-05
9.88775470838e-05
9.88667818253e-05
9.88559164584e-05
9.88451240227e-05
9.88345372323e-05
9.88236833896e-05
9.88130222395e-05
9.88023307988e-05
9.8791680482e-05
9.87807047723e-05
9.95158265338e-05
9.95014275515e-05
9.94855270132e-05
9.9470181298e-05
9.9455283746e-05
9.94406866002e-05
9.94262762643e-05
9.94120776289e-05
9.93980115552e-05
9.93841099795e-05
9.93703410985e-05
9.93567244311e-05
9.93432436002e-05
9.9329894273e-05
9.9316669219e-05
9.9303581627e-05
9.92905983028e-05
9.92777602455e-05
9.92650037083e-05
9.92523931353e-05
9.92398776593e-05
9.922746585e-05
9.92151491645e-05
9.92029290526e-05
9.91908170321e-05
9.91787932458e-05
9.91668943232e-05
9.91550219305e-05
9.91432403834e-05
9.91315463011e-05
9.91199657533e-05
9.9108430768e-05
9.90969290107e-05
9.90855182539e-05
9.90742089812e-05
9.90629245036e-05
9.90517124143e-05
9.90405234535e-05
9.90294011898e-05
9.90182779506e-05
9.90073631881e-05
9.89963470684e-05
9.89854434575e-05
9.89744311731e-05
9.89636082727e-05
9.89526288587e-05
9.89420950078e-05
9.89311522633e-05
9.89204187726e-05
9.89095170372e-05
9.88989176601e-05
9.88879763822e-05
9.88775686166e-05
9.88667947151e-05
9.88559484264e-05
9.88451324359e-05
9.88345375528e-05
9.88236992444e-05
9.8813036284e-05
9.88023095478e-05
9.87916825629e-05
9.87807248614e-05
9.95158299858e-05
9.95014310413e-05
9.9485531103e-05
9.94701848885e-05
9.94552881631e-05
9.94406909202e-05
9.94262804899e-05
9.94120821808e-05
9.93980157583e-05
9.93841157225e-05
9.93703454037e-05
9.93567297506e-05
9.93432495991e-05
9.93298995342e-05
9.93166750066e-05
9.93035879854e-05
9.92906057946e-05
9.92777673309e-05
9.9265010446e-05
9.92524008253e-05
9.9239884158e-05
9.92274753026e-05
9.92151540116e-05
9.92029429856e-05
9.91908196461e-05
9.91788098614e-05
9.91668927737e-05
9.91550126096e-05
9.9143248361e-05
9.91315642068e-05
9.91199770897e-05
9.91084357775e-05
9.90969329046e-05
9.90855294088e-05
9.9074216483e-05
9.90629491956e-05
9.90517279464e-05
9.90405248738e-05
9.90294010581e-05
9.90182744011e-05
9.90073856844e-05
9.89963599955e-05
9.89854510267e-05
9.89744480288e-05
9.89636114839e-05
9.89526347442e-05
9.89420880645e-05
9.89311521328e-05
9.89204429659e-05
9.89095539821e-05
9.88989244716e-05
9.88879754965e-05
9.88775420312e-05
9.88667998996e-05
9.8855940816e-05
9.88451605473e-05
9.88345536479e-05
9.88236989979e-05
9.88130382309e-05
9.88023140006e-05
9.87916805376e-05
9.8780726895e-05
9.95158327983e-05
9.95014339942e-05
9.94855345221e-05
9.94701878391e-05
9.94552921615e-05
9.94406936688e-05
9.94262848617e-05
9.94120846679e-05
9.93980205802e-05
9.9384118685e-05
9.93703506779e-05
9.93567344822e-05
9.93432543015e-05
9.93299039558e-05
9.9316682156e-05
9.93035938257e-05
9.92906124211e-05
9.92777742694e-05
9.9265017277e-05
9.92524085292e-05
9.9239890972e-05
9.92274824135e-05
9.92151637372e-05
9.92029394767e-05
9.91908388619e-05
9.91788124358e-05
9.91669021995e-05
9.91550413513e-05
9.91432603944e-05
9.91315567624e-05
9.91199778488e-05
9.91084464808e-05
9.90969510023e-05
9.90855319003e-05
9.90742103451e-05
9.90629452745e-05
9.90517346745e-05
9.90405352922e-05
9.9029424718e-05
9.90182842067e-05
9.90073920592e-05
9.89963683127e-05
9.89854692883e-05
9.89744487749e-05
9.8963633894e-05
9.89526675764e-05
9.89421026657e-05
9.89311506435e-05
9.89204333708e-05
9.89095496693e-05
9.88989344301e-05
9.88879914391e-05
9.88775641862e-05
9.8866817789e-05
9.88559437591e-05
9.88451475139e-05
9.88345555403e-05
9.88237103317e-05
9.88130457491e-05
9.88023536788e-05
9.87917056613e-05
9.87807304225e-05
9.95158348545e-05
9.95014361638e-05
9.94855370511e-05
9.94701905521e-05
9.94552943695e-05
9.94406966908e-05
9.94262871142e-05
9.94120875295e-05
9.93980228014e-05
9.93841222215e-05
9.93703548974e-05
9.93567375142e-05
9.9343259251e-05
9.93299083943e-05
9.93166875861e-05
9.93035997108e-05
9.92906186542e-05
9.92777802099e-05
9.92650245087e-05
9.92524149927e-05
9.92398965506e-05
9.92274901091e-05
9.92151691911e-05
9.92029549794e-05
9.91908372581e-05
9.91788115313e-05
9.91669205336e-05
9.91550483691e-05
9.91432566156e-05
9.91315752502e-05
9.91199830225e-05
9.91084583937e-05
9.90969541098e-05
9.90855382441e-05
9.90742131524e-05
9.90629487849e-05
9.90517419525e-05
9.90405348036e-05
9.90294337952e-05
9.90183096248e-05
9.9007384713e-05
9.89963770498e-05
9.89854525841e-05
9.89744426754e-05
9.89636383285e-05
9.89526706196e-05
9.89421049448e-05
9.89311635127e-05
9.89204408845e-05
9.89095658847e-05
9.88989342796e-05
9.88879846615e-05
9.88775806164e-05
9.88668235429e-05
9.88559401239e-05
9.88451702445e-05
9.88345667707e-05
9.88237224487e-05
9.88130612257e-05
9.88023652923e-05
9.87917153349e-05
9.87807546436e-05
9.87695261792e-05
9.87588993604e-05
9.87482708811e-05
9.8737333793e-05
9.87261984293e-05
9.87153161138e-05
9.87042877946e-05
9.86932419326e-05
9.86816925423e-05
9.86709187363e-05
9.86596581363e-05
9.86491524927e-05
9.86375189592e-05
9.86260626268e-05
9.86137600494e-05
9.86026384435e-05
9.85906592863e-05
9.85798673857e-05
9.85679062512e-05
9.85567328931e-05
9.8544364177e-05
9.85322259556e-05
9.85196713878e-05
9.85066659446e-05
9.84948473348e-05
9.84820652456e-05
9.84704445336e-05
9.84581347365e-05
9.84459183041e-05
9.84330452898e-05
9.84198298382e-05
9.84057943266e-05
9.83920832686e-05
9.83777633536e-05
9.83647386649e-05
9.83504362822e-05
9.83381998734e-05
9.83237651629e-05
9.8311624765e-05
9.82955347947e-05
9.82830367042e-05
9.82666782271e-05
9.82416588501e-05
9.83048740902e-05
9.84164130917e-05
9.85231477486e-05
9.85547765017e-05
9.85608915531e-05
9.85533379315e-05
9.85398105944e-05
9.85255406003e-05
9.85120269947e-05
9.85024568613e-05
9.84955455492e-05
9.84883030589e-05
9.84792420056e-05
9.84678008202e-05
9.84537572347e-05
9.84369754144e-05
9.84176254413e-05
9.8396783693e-05
9.83752726208e-05
9.83537709642e-05
9.87695632082e-05
9.87588882241e-05
9.87482711031e-05
9.87373467906e-05
9.87262267579e-05
9.8715311154e-05
9.87042841659e-05
9.86932545046e-05
9.86817191679e-05
9.86709304108e-05
9.865965469e-05
9.8649148596e-05
9.86375005569e-05
9.86260783936e-05
9.86137674346e-05
9.86026643882e-05
9.85906672602e-05
9.85798622031e-05
9.85678977603e-05
9.85567217352e-05
9.85443862957e-05
9.85322418091e-05
9.85197075832e-05
9.85066910627e-05
9.84948384199e-05
9.8482063988e-05
9.84704480666e-05
9.84581477761e-05
9.84459386862e-05
9.84330737496e-05
9.84198705619e-05
9.84057982049e-05
9.83921056825e-05
9.83777626322e-05
9.83647346599e-05
9.83504165707e-05
9.83381969874e-05
9.83237812673e-05
9.83116318702e-05
9.82955082896e-05
9.82831125672e-05
9.82664647144e-05
9.82415045082e-05
9.83017233149e-05
9.84115543399e-05
9.851745493e-05
9.85497725479e-05
9.85565475635e-05
9.85499910789e-05
9.85376984719e-05
9.85249567456e-05
9.85144492266e-05
9.85071370427e-05
9.85015226688e-05
9.84944965314e-05
9.84851715383e-05
9.84731259454e-05
9.8458270158e-05
9.84406442658e-05
9.84206618995e-05
9.83992256345e-05
9.83773198688e-05
9.83554373492e-05
9.87695673326e-05
9.875891831e-05
9.87482740794e-05
9.87373461424e-05
9.87262344783e-05
9.87153172186e-05
9.87042978743e-05
9.86932723849e-05
9.8681721877e-05
9.86709513492e-05
9.86596486748e-05
9.86491485732e-05
9.86374996509e-05
9.86260997081e-05
9.86137676211e-05
9.86026868291e-05
9.85906929849e-05
9.8579886591e-05
9.85679370785e-05
9.85567387061e-05
9.85444131308e-05
9.85322268919e-05
9.85196994212e-05
9.85066864584e-05
9.84948247863e-05
9.84820820806e-05
9.84704671966e-05
9.84581539113e-05
9.84459292859e-05
9.84330660776e-05
9.84198579148e-05
9.84057702233e-05
9.83921176068e-05
9.83777706367e-05
9.83647490951e-05
9.83504255386e-05
9.83382161058e-05
9.83238055061e-05
9.83116256262e-05
9.82954696081e-05
9.82831630096e-05
9.82662019063e-05
9.82413886371e-05
9.82987407192e-05
9.84066579561e-05
9.8511444191e-05
9.85444207664e-05
9.85519005559e-05
9.85465292659e-05
9.85358128974e-05
9.85250123006e-05
9.85179397653e-05
9.85121625202e-05
9.85071898266e-05
9.85003339717e-05
9.84908427192e-05
9.84782527389e-05
9.84625284681e-05
9.84438919182e-05
9.84231929022e-05
9.84012819333e-05
9.83791070173e-05
9.83569060574e-05
9.87695866921e-05
9.87589213042e-05
9.87482820828e-05
9.87373499777e-05
9.87262512274e-05
9.87153255206e-05
9.87043126368e-05
9.8693283485e-05
9.86817308993e-05
9.86709367031e-05
9.86596682099e-05
9.86491892309e-05
9.86375301891e-05
9.86261117913e-05
9.86137527899e-05
9.8602691751e-05
9.85907090577e-05
9.85799002039e-05
9.85679636794e-05
9.85567410079e-05
9.85444259005e-05
9.85322082601e-05
9.85196944181e-05
9.85066915694e-05
9.84948076209e-05
9.84820847149e-05
9.84704799507e-05
9.84581754385e-05
9.84459289542e-05
9.84330683422e-05
9.8419862751e-05
9.84057792347e-05
9.83921474319e-05
9.83777954071e-05
9.8364761907e-05
9.83504134519e-05
9.8338186324e-05
9.83237690645e-05
9.83115903359e-05
9.8295456883e-05
9.82832399208e-05
9.82659444605e-05
9.82413387317e-05
9.82959476727e-05
9.84017121899e-05
9.85050991906e-05
9.85387051591e-05
9.85469830931e-05
9.85429903009e-05
9.85343438422e-05
9.85257873091e-05
9.85216464152e-05
9.85175084947e-05
9.85129786986e-05
9.85059693333e-05
9.84959390559e-05
9.84826072419e-05
9.84660581469e-05
9.84468229065e-05
9.84256878737e-05
9.84033414593e-05
9.83807103055e-05
9.83580933925e-05
9.87695564865e-05
9.87589392136e-05
9.87483021747e-05
9.87373947513e-05
9.87262787719e-05
9.87153303715e-05
9.87043084444e-05
9.86932732293e-05
9.86817230853e-05
9.86709696479e-05
9.86596692697e-05
9.86491745918e-05
9.86375291578e-05
9.86261318789e-05
9.8613775387e-05
9.86026986135e-05
9.85907028043e-05
9.85798911818e-05
9.85679657492e-05
9.85567501608e-05
9.8544443999e-05
9.85322343688e-05
9.85197174435e-05
9.85067117491e-05
9.84948182954e-05
9.84820916968e-05
9.84704758216e-05
9.84581815335e-05
9.84459250468e-05
9.84330714571e-05
9.84198602851e-05
9.84057813583e-05
9.83921532234e-05
9.8377800659e-05
9.83647655157e-05
9.83504238491e-05
9.83381873327e-05
9.83237682817e-05
9.8311574571e-05
9.82954528838e-05
9.82832753992e-05
9.82656071852e-05
9.82413124975e-05
9.82933336045e-05
9.83967303138e-05
9.84984453722e-05
9.85326251021e-05
9.85418590164e-05
9.85396457236e-05
9.85321193023e-05
9.85275225614e-05
9.85255250594e-05
9.85228338823e-05
9.85185957017e-05
9.8511331165e-05
9.85005827541e-05
9.84863887845e-05
9.8469088699e-05
9.84493925668e-05
9.84279895265e-05
9.84054129292e-05
9.83823994607e-05
9.83592938352e-05
9.87695818121e-05
9.87589306106e-05
9.87482922426e-05
9.87373927817e-05
9.87262748066e-05
9.87153381156e-05
9.87043134321e-05
9.8693279964e-05
9.86817402395e-05
9.86709675048e-05
9.86596879162e-05
9.86492051045e-05
9.86375406468e-05
9.86261373743e-05
9.86137733627e-05
9.86027073387e-05
9.85907185349e-05
9.85799077214e-05
9.85679856076e-05
9.85567558008e-05
9.85444444796e-05
9.85322371437e-05
9.85197182108e-05
9.85067133702e-05
9.84948285223e-05
9.84821157164e-05
9.84704784993e-05
9.84581993884e-05
9.84459170956e-05
9.84330570017e-05
9.84198632695e-05
9.84057951829e-05
9.83921588199e-05
9.83777995137e-05
9.83647499281e-05
9.83504129545e-05
9.83381688686e-05
9.83237725931e-05
9.83115765734e-05
9.82955021069e-05
9.82833217344e-05
9.82652640919e-05
9.824134657e-05
9.82909222262e-05
9.83917413359e-05
9.84915062246e-05
9.85262242855e-05
9.85365543198e-05
9.85359504264e-05
9.85316941875e-05
9.85291477832e-05
9.85293764954e-05
9.8527908542e-05
9.85240095158e-05
9.85164535988e-05
9.85050457097e-05
9.84901849724e-05
9.84722952681e-05
9.84521262089e-05
9.84303091203e-05
9.84071746276e-05
9.83836275556e-05
9.83600807975e-05
9.87695790211e-05
9.87589619047e-05
9.87483294919e-05
9.87374271356e-05
9.8726275463e-05
9.87153526117e-05
9.87043216603e-05
9.86932875132e-05
9.86817559206e-05
9.86709767111e-05
9.86597029929e-05
9.86492061301e-05
9.86375278548e-05
9.86261373644e-05
9.86137864133e-05
9.86027275747e-05
9.85907439657e-05
9.857991757e-05
9.8567976364e-05
9.85567430265e-05
9.85444362303e-05
9.85322499125e-05
9.85197466519e-05
9.85067370761e-05
9.84948360332e-05
9.84821062055e-05
9.84704442847e-05
9.84582080645e-05
9.84459278453e-05
9.84330931501e-05
9.8419891951e-05
9.84058115463e-05
9.83921595015e-05
9.83777797079e-05
9.83647365372e-05
9.8350415336e-05
9.83381775111e-05
9.83238243772e-05
9.83115848909e-05
9.82955481723e-05
9.82833041871e-05
9.82648184854e-05
9.82414245401e-05
9.82887432285e-05
9.83867982359e-05
9.84843278338e-05
9.85194917543e-05
9.85310412412e-05
9.85327933468e-05
9.85311054211e-05
9.85314525445e-05
9.85336547369e-05
9.85330441804e-05
9.8529477329e-05
9.85215364491e-05
9.85093146905e-05
9.84934476037e-05
9.84745740437e-05
9.84536651929e-05
9.84315578292e-05
9.84083655474e-05
9.838451657e-05
9.83603319102e-05
9.87695795874e-05
9.87589711895e-05
9.87483152636e-05
9.87374222498e-05
9.87262673551e-05
9.87153724478e-05
9.87043618825e-05
9.86933157152e-05
9.8681783889e-05
9.86709604628e-05
9.86597051443e-05
9.86492268732e-05
9.86375514089e-05
9.86261651253e-05
9.86138059452e-05
9.86027233026e-05
9.8590724159e-05
9.85799057953e-05
9.85679809004e-05
9.85567600643e-05
9.85444366911e-05
9.85322664972e-05
9.85197400154e-05
9.85067376649e-05
9.84948526266e-05
9.84821347958e-05
9.84704602705e-05
9.84582401336e-05
9.84459091012e-05
9.84330677076e-05
9.84198558893e-05
9.84058005051e-05
9.83921514798e-05
9.83778054944e-05
9.83647520597e-05
9.83504313555e-05
9.83381420648e-05
9.83237677214e-05
9.83115065318e-05
9.82955762042e-05
9.82832988692e-05
9.82644788988e-05
9.82416592292e-05
9.82868435629e-05
9.83818711719e-05
9.8476855787e-05
9.85123822943e-05
9.85252528964e-05
9.85295080855e-05
9.85316500445e-05
9.85343532048e-05
9.85387123968e-05
9.85385206568e-05
9.8534490874e-05
9.85259981835e-05
9.85129721182e-05
9.84962549579e-05
9.84765979731e-05
9.84550535887e-05
9.84324438774e-05
9.84089738672e-05
9.83848909749e-05
9.83606584153e-05
9.87696001246e-05
9.87589857901e-05
9.87483232499e-05
9.87374337901e-05
9.87262941711e-05
9.87153590546e-05
9.87043453826e-05
9.86933047775e-05
9.86818051331e-05
9.86709620356e-05
9.86597260425e-05
9.86492406068e-05
9.86375454413e-05
9.86261600336e-05
9.86138011687e-05
9.86027388712e-05
9.85907556406e-05
9.8579926576e-05
9.85679939191e-05
9.85567693243e-05
9.85444429121e-05
9.85322756714e-05
9.85197512878e-05
9.85067353729e-05
9.84948640477e-05
9.84821559763e-05
9.84704492785e-05
9.8458254775e-05
9.84459055709e-05
9.84330807715e-05
9.84198794651e-05
9.84058430041e-05
9.83921601284e-05
9.83778050644e-05
9.83647232046e-05
9.83504148587e-05
9.83381177674e-05
9.83238023226e-05
9.83115056635e-05
9.82956711516e-05
9.82832764229e-05
9.826403195e-05
9.82419138137e-05
9.82851772526e-05
9.83770127001e-05
9.84692151458e-05
9.85050810251e-05
9.85193388619e-05
9.85264095578e-05
9.85307055157e-05
9.8537071195e-05
9.8542999949e-05
9.85436842837e-05
9.85392509364e-05
9.85303904086e-05
9.85165514672e-05
9.84989187636e-05
9.8478454013e-05
9.84564135008e-05
9.84336460805e-05
9.84100695837e-05
9.8385564995e-05
9.8360669673e-05
9.87696110303e-05
9.87589886877e-05
9.87483197792e-05
9.87374198115e-05
9.87262971318e-05
9.87153685869e-05
9.87043802412e-05
9.86933262026e-05
9.86818245042e-05
9.8670967033e-05
9.86597298263e-05
9.86492222234e-05
9.86375340115e-05
9.86261666303e-05
9.86138165497e-05
9.86027447667e-05
9.85907604952e-05
9.85799251909e-05
9.85679926734e-05
9.85567791956e-05
9.85444490858e-05
9.85323076365e-05
9.85197619552e-05
9.850675317e-05
9.84948804844e-05
9.84821529119e-05
9.84704591317e-05
9.84583070288e-05
9.84459244337e-05
9.84330869332e-05
9.84198631678e-05
9.84058358871e-05
9.83921310236e-05
9.83778082779e-05
9.83647394062e-05
9.8350457127e-05
9.83381218316e-05
9.83238019362e-05
9.83114332411e-05
9.8295698651e-05
9.82831783768e-05
9.82636027801e-05
9.82422949553e-05
9.82838271914e-05
9.83722514165e-05
9.84613695124e-05
9.84974520808e-05
9.85132617177e-05
9.85229876893e-05
9.85323910258e-05
9.8541316589e-05
9.85473775903e-05
9.8547905247e-05
9.85427425673e-05
9.85337707653e-05
9.85192690194e-05
9.85007787906e-05
9.84796686968e-05
9.84572417692e-05
9.84343727643e-05
9.84107445002e-05
9.83861781659e-05
9.83611794163e-05
9.87696275777e-05
9.87589961352e-05
9.87483265228e-05
9.87374323288e-05
9.87263196533e-05
9.87153724443e-05
9.87043798008e-05
9.86933209571e-05
9.86818554944e-05
9.86709567839e-05
9.86597401287e-05
9.8649254477e-05
9.86375829209e-05
9.86261963086e-05
9.8613821182e-05
9.86027513586e-05
9.8590775881e-05
9.85799376869e-05
9.85680154485e-05
9.85567882185e-05
9.85444437191e-05
9.85323085212e-05
9.85197537171e-05
9.85067504044e-05
9.84948940219e-05
9.84821552531e-05
9.84704503869e-05
9.8458318713e-05
9.84459111568e-05
9.84330879441e-05
9.84198762263e-05
9.8405867938e-05
9.8392126287e-05
9.83778007004e-05
9.83647169724e-05
9.83504367751e-05
9.83380940071e-05
9.83238367357e-05
9.83114260231e-05
9.82958088172e-05
9.82831020312e-05
9.82631565416e-05
9.82427258794e-05
9.82827286188e-05
9.83675759687e-05
9.8453405315e-05
9.84895480494e-05
9.85072839526e-05
9.85204132913e-05
9.85311295908e-05
9.85450077018e-05
9.85518569909e-05
9.8552243923e-05
9.85463491988e-05
9.85369643576e-05
9.85218013685e-05
9.85025888278e-05
9.8480827038e-05
9.84579611199e-05
9.84348156471e-05
9.84111243045e-05
9.83865627528e-05
9.8361822412e-05
9.87696252889e-05
9.87590131389e-05
9.8748346837e-05
9.87374444809e-05
9.87263077573e-05
9.8715382221e-05
9.87043945698e-05
9.86933255244e-05
9.86818745115e-05
9.86709574083e-05
9.86597573608e-05
9.86492439014e-05
9.86375678007e-05
9.86262057264e-05