/*--------------------------------*- C++ -*----------------------------------*\
  =========                 |
  \\      /  F ield         | OpenFOAM: The Open Source CFD Toolbox
   \\    /   O peration     | Website:  https://openfoam.org
    \\  /    A nd           | Version:  6
     \\/     M anipulation  |
\*---------------------------------------------------------------------------*/
FoamFile
{
    version     2.0;
    format      ascii;
    class       volScalarField;
    location    "0.0002";
    object      H2O;
}
// * * * * * * * * * * * * * * * * * * * * * * * * * * * * * * * * * * * * * //

dimensions      [0 0 0 0 0 0 0];

internalField   nonuniform List<scalar> 
208908
(
0.11301841786
0.113018585286
0.113018773579
0.11301895852
0.113019141154
0.113019322847
0.113019505081
0.113019687325
0.113019870762
0.113020054562
0.113020239473
0.113020424858
0.113020611161
0.113020798258
0.113020986234
0.113021174852
0.113021364534
0.11302155463
0.113021746173
0.113021937963
0.113022130767
0.113022324441
0.113022519148
0.113022714535
0.113022911007
0.113023107652
0.11302330576
0.113023504798
0.113023704399
0.113023904998
0.113024106517
0.113024308321
0.113024512134
0.113024716639
0.113024921205
0.113025127053
0.113025333805
0.113025541991
0.113025751636
0.113025961154
0.113026170795
0.11302638221
0.113026595137
0.113026809403
0.11302702418
0.113027239684
0.113027455571
0.113027672483
0.113027891289
0.113028111826
0.11302833273
0.113028554199
0.113028776263
0.113028998852
0.113029224399
0.113029451652
0.11302968001
0.113029906791
0.113030135573
0.113030364404
0.113030599217
0.113030830797
0.113018417691
0.113018585116
0.113018773414
0.113018958346
0.113019140986
0.113019322681
0.11301950491
0.113019687176
0.113019870582
0.113020054419
0.113020239298
0.113020424712
0.113020611004
0.113020798118
0.11302098607
0.113021174712
0.113021364379
0.113021554497
0.113021746039
0.113021937801
0.11302213063
0.113022324328
0.113022519013
0.113022714422
0.113022910885
0.113023107556
0.113023305527
0.113023504625
0.113023704304
0.113023904882
0.113024106215
0.113024308298
0.113024512002
0.113024716578
0.113024921048
0.113025126992
0.113025333705
0.113025541824
0.113025751433
0.113025960928
0.11302617081
0.113026382135
0.113026594992
0.113026809288
0.113027024076
0.113027239561
0.113027455525
0.113027672374
0.11302789113
0.113028111689
0.113028332648
0.11302855407
0.113028776134
0.113028998699
0.113029224312
0.113029451445
0.113029679795
0.113029906748
0.113030135609
0.11303036427
0.113030599063
0.113030830607
0.113018417531
0.113018584957
0.11301877325
0.113018958189
0.113019140817
0.113019322517
0.113019504758
0.113019687019
0.113019870424
0.113020054263
0.11302023915
0.113020424561
0.113020610855
0.113020797979
0.113020985922
0.113021174561
0.113021364255
0.113021554352
0.113021745906
0.113021937665
0.113022130512
0.113022324191
0.113022518902
0.113022714252
0.113022910716
0.113023107405
0.11302330542
0.113023504536
0.113023704222
0.113023904747
0.113024106141
0.11302430804
0.113024511949
0.113024716406
0.11302492091
0.113025126845
0.113025333554
0.113025541758
0.113025751464
0.113025960752
0.113026170419
0.113026382009
0.113026595045
0.113026809139
0.113027023861
0.113027239435
0.11302745531
0.11302767233
0.113027891235
0.113028111624
0.113028332408
0.113028553951
0.113028775979
0.113028998632
0.113029224191
0.113029451414
0.113029679752
0.113029906555
0.113030135369
0.113030364143
0.113030599073
0.113030830441
0.113018417381
0.113018584807
0.113018773099
0.113018958037
0.113019140659
0.11301932236
0.113019504618
0.113019686859
0.113019870281
0.113020054118
0.113020238995
0.113020424425
0.113020610722
0.113020797817
0.113020985807
0.113021174425
0.113021364098
0.11302155425
0.113021745768
0.11302193753
0.113022130416
0.113022324051
0.113022518738
0.113022714275
0.113022910747
0.113023107259
0.113023305067
0.113023504345
0.113023704077
0.113023904684
0.113024105969
0.113024307883
0.113024511823
0.113024716291
0.113024920956
0.11302512665
0.1130253335
0.113025541476
0.113025751151
0.11302596072
0.113026170515
0.113026381827
0.113026594743
0.113026809013
0.113027023805
0.113027239393
0.113027455338
0.113027672183
0.113027890871
0.113028111552
0.113028332465
0.113028553808
0.113028775891
0.113028998481
0.113029224071
0.113029451296
0.113029679712
0.113029906581
0.113030135182
0.113030364004
0.113030598669
0.113030830476
0.113018417242
0.113018584668
0.11301877296
0.113018957891
0.113019140517
0.113019322204
0.113019504485
0.11301968671
0.113019870151
0.113020053954
0.113020238882
0.113020424269
0.113020610589
0.113020797696
0.113020985665
0.113021174276
0.113021364016
0.113021554079
0.113021745678
0.113021937407
0.113022130273
0.113022323962
0.113022518626
0.113022714101
0.113022910606
0.113023107172
0.11302330505
0.113023504195
0.113023703901
0.113023904636
0.11302410591
0.113024307791
0.113024511608
0.113024716124
0.113024920681
0.113025126554
0.113025333264
0.113025541385
0.113025751116
0.113025960566
0.113026170376
0.113026381791
0.113026594592
0.113026808834
0.113027023691
0.113027239321
0.113027455254
0.113027672069
0.113027890856
0.11302811141
0.113028332196
0.113028553735
0.113028775753
0.113028998449
0.113029224045
0.113029451131
0.113029679526
0.113029906261
0.113030135146
0.113030363986
0.11303059884
0.113030830317
0.113018417112
0.113018584538
0.113018772827
0.113018957761
0.113019140369
0.113019322078
0.113019504329
0.113019686601
0.113019869988
0.113020053832
0.113020238739
0.113020424146
0.113020610449
0.113020797571
0.113020985528
0.113021174169
0.113021363878
0.113021553963
0.113021745558
0.1130219373
0.113022130158
0.113022323841
0.113022518498
0.11302271396
0.113022910443
0.113023106968
0.113023305056
0.113023504117
0.11302370378
0.113023904407
0.113024105776
0.113024307679
0.113024511542
0.113024715976
0.113024920546
0.113025126475
0.113025333162
0.113025541383
0.113025750993
0.113025960393
0.113026170237
0.113026381671
0.113026594476
0.113026808765
0.113027023605
0.11302723917
0.113027455053
0.113027671935
0.113027890765
0.113028111321
0.113028332146
0.113028553586
0.113028775636
0.113028998365
0.113029223859
0.113029451065
0.113029679321
0.113029906278
0.113030134997
0.113030363871
0.113030598732
0.113030830092
0.11301841699
0.113018584413
0.113018772708
0.113018957626
0.113019140244
0.113019321939
0.113019504204
0.113019686464
0.113019869855
0.113020053708
0.113020238593
0.113020424024
0.113020610325
0.113020797423
0.113020985431
0.113021174027
0.113021363758
0.113021553851
0.113021745441
0.113021937205
0.113022130005
0.11302232373
0.113022518411
0.113022713801
0.113022910238
0.113023106897
0.113023304948
0.113023504036
0.113023703686
0.113023904166
0.11302410552
0.113024307626
0.113024511465
0.113024715923
0.113024920455
0.113025126267
0.113025333045
0.113025541101
0.113025750835
0.113025960348
0.113026170213
0.113026381553
0.113026594454
0.11302680865
0.11302702342
0.113027239061
0.113027454999
0.113027671891
0.113027890683
0.113028111091
0.113028331974
0.113028553575
0.113028775655
0.113028998196
0.11302922369
0.113029450959
0.113029679379
0.113029906153
0.113030134821
0.11303036368
0.113030598367
0.113030830105
0.113018416873
0.113018584296
0.113018772587
0.113018957507
0.113019140111
0.113019321815
0.113019504077
0.113019686325
0.113019869739
0.113020053566
0.113020238453
0.11302042392
0.11302061017
0.113020797325
0.113020985277
0.113021173933
0.113021363621
0.113021553751
0.113021745302
0.113021937095
0.113022129902
0.113022323594
0.113022518265
0.113022713722
0.113022910147
0.113023106783
0.113023304799
0.113023503876
0.113023703511
0.113023904115
0.113024105494
0.113024307495
0.113024511234
0.113024715788
0.113024920255
0.113025126229
0.113025332987
0.113025540983
0.11302575072
0.113025960275
0.113026170014
0.1130263814
0.11302659419
0.113026808526
0.113027023384
0.113027238944
0.113027454761
0.113027671717
0.113027890594
0.113028111168
0.113028331942
0.113028553396
0.113028775583
0.113028998104
0.113029223669
0.113029450866
0.113029679092
0.113029905994
0.113030134977
0.113030363606
0.113030598252
0.113030829916
0.11301841676
0.113018584184
0.11301877247
0.113018957392
0.113019139987
0.113019321693
0.11301950395
0.113019686202
0.113019869597
0.113020053447
0.113020238326
0.113020423776
0.113020610053
0.113020797209
0.113020985149
0.113021173798
0.113021363518
0.113021553614
0.113021745215
0.11302193695
0.113022129755
0.113022323492
0.11302251816
0.113022713544
0.113022910014
0.113023106585
0.113023304668
0.113023503806
0.11302370339
0.113023904006
0.113024105375
0.113024307393
0.113024511121
0.113024715626
0.113024920179
0.113025126111
0.113025332815
0.113025540916
0.11302575052
0.113025960108
0.113026169981
0.113026381361
0.113026594144
0.113026808386
0.113027023061
0.113027238815
0.1130274548
0.113027671631
0.113027890513
0.113028110976
0.11302833182
0.113028553331
0.113028775419
0.113028998065
0.113029223511
0.113029450655
0.113029679096
0.113029905871
0.113030134716
0.1130303635
0.113030598257
0.113030829886
0.113018416651
0.113018584075
0.113018772354
0.113018957284
0.113019139865
0.113019321572
0.11301950383
0.113019686071
0.113019869482
0.113020053299
0.113020238213
0.113020423641
0.113020609943
0.113020797063
0.113020985025
0.113021173708
0.113021363354
0.113021553527
0.113021745055
0.113021936833
0.113022129648
0.113022323348
0.113022517997
0.113022713457
0.113022909934
0.113023106484
0.113023304475
0.113023503605
0.113023703291
0.113023903929
0.113024105158
0.113024307231
0.113024511003
0.113024715566
0.11302492009
0.113025125948
0.113025332638
0.113025540788
0.113025750548
0.113025960009
0.113026169756
0.113026381236
0.113026593958
0.113026808246
0.113027023098
0.1130272387
0.113027454633
0.113027671529
0.113027890348
0.11302811089
0.113028331686
0.113028553222
0.11302877538
0.113028997879
0.113029223465
0.113029450621
0.113029678941
0.113029905747
0.113030134526
0.113030363434
0.1130305982
0.113030829755
0.113018416546
0.113018583968
0.113018772248
0.113018957169
0.113019139758
0.113019321449
0.113019503711
0.113019685953
0.113019869357
0.113020053166
0.113020238095
0.11302042352
0.113020609796
0.113020796968
0.113020984886
0.113021173569
0.11302136326
0.113021553373
0.113021744923
0.113021936708
0.113022129523
0.113022323181
0.113022517903
0.113022713278
0.113022909796
0.113023106331
0.113023304391
0.113023503488
0.11302370319
0.113023903718
0.11302410515
0.113024307066
0.113024510923
0.113024715367
0.113024919927
0.113025125798
0.113025332587
0.113025540619
0.113025750384
0.113025959899
0.113026169591
0.113026381117
0.113026594064
0.113026808195
0.113027022789
0.113027238417
0.113027454465
0.113027671481
0.113027890217
0.113028110816
0.113028331598
0.113028553176
0.113028775299
0.113028997814
0.113029223395
0.113029450514
0.113029678839
0.113029905601
0.113030134459
0.113030363315
0.113030598216
0.113030829455
0.113018416445
0.113018583867
0.113018772141
0.113018957066
0.113019139645
0.113019321339
0.113019503598
0.113019685838
0.113019869227
0.113020053073
0.113020237947
0.113020423406
0.113020609684
0.113020796823
0.113020984795
0.113021173406
0.113021363143
0.113021553241
0.113021744798
0.113021936558
0.113022129366
0.113022323093
0.113022517717
0.113022713206
0.113022909678
0.11302310625
0.113023304286
0.113023503324
0.11302370298
0.113023903618
0.113024104962
0.11302430696
0.113024510786
0.113024715266
0.113024919721
0.113025125735
0.113025332513
0.113025540457
0.113025750249
0.113025959738
0.113026169493
0.113026381026
0.113026593867
0.113026808019
0.113027022776
0.113027238507
0.113027454512
0.113027671183
0.113027890094
0.113028110706
0.113028331476
0.113028552987
0.113028775112
0.11302899772
0.113029223199
0.113029450452
0.113029678732
0.113029905448
0.113030134407
0.113030363246
0.113030597966
0.113030829568
0.113018416349
0.113018583771
0.113018772037
0.11301895697
0.113019139538
0.113019321232
0.113019503495
0.113019685728
0.113019869126
0.113020052944
0.113020237848
0.113020423287
0.113020609556
0.113020796709
0.113020984677
0.113021173278
0.113021362998
0.113021553107
0.113021744673
0.113021936413
0.113022129247
0.113022322922
0.113022517619
0.113022713016
0.11302290944
0.113023106069
0.113023304279
0.113023503291
0.113023702833
0.113023903431
0.113024104885
0.113024306851
0.113024510685
0.113024715092
0.113024919616
0.113025125567
0.113025332379
0.113025540436
0.113025750039
0.11302595964
0.113026169401
0.113026380916
0.113026593741
0.113026807851
0.113027022655
0.113027238345
0.113027454271
0.113027671161
0.113027889942
0.113028110582
0.113028331389
0.113028552889
0.113028774997
0.113028997594
0.113029223225
0.113029450235
0.113029678673
0.113029905415
0.113030134346
0.113030363127
0.113030597749
0.113030829477
0.113018416261
0.113018583681
0.113018771942
0.113018956881
0.113019139434
0.113019321148
0.113019503384
0.113019685649
0.113019869008
0.113020052862
0.113020237727
0.113020423174
0.113020609448
0.113020796607
0.113020984532
0.113021173159
0.11302136287
0.113021552973
0.113021744543
0.113021936267
0.113022129123
0.113022322786
0.113022517473
0.113022712964
0.113022909396
0.113023105972
0.11302330397
0.113023503025
0.113023702759
0.113023903415
0.113024104749
0.113024306686
0.113024510506
0.113024715008
0.11302491955
0.113025125409
0.113025332333
0.113025540266
0.113025750014
0.113025959512
0.113026169279
0.113026380761
0.113026593534
0.113026807793
0.113027022523
0.113027238183
0.1130274542
0.113027671038
0.113027889797
0.113028110446
0.113028331309
0.113028552783
0.113028774879
0.113028997433
0.113029223135
0.113029450237
0.11302967863
0.113029905256
0.113030134095
0.113030362972
0.113030597868
0.113030829347
0.113018416182
0.113018583601
0.113018771859
0.113018956792
0.113019139357
0.113019321054
0.113019503306
0.113019685557
0.113019868933
0.113020052763
0.11302023762
0.113020423089
0.113020609333
0.113020796501
0.113020984416
0.113021173036
0.113021362746
0.113021552854
0.113021744403
0.11302193614
0.113022129016
0.113022322645
0.113022517352
0.113022712766
0.113022909246
0.113023105894
0.113023303872
0.113023502934
0.113023702697
0.113023903174
0.113024104471
0.113024306564
0.11302451048
0.113024714919
0.113024919474
0.11302512533
0.113025332096
0.113025540223
0.113025749932
0.113025959316
0.113026169121
0.113026380568
0.113026593351
0.113026807766
0.113027022566
0.113027238107
0.113027454049
0.113027670876
0.113027889746
0.113028110308
0.113028331138
0.113028552733
0.113028774894
0.113028997319
0.113029223057
0.113029450033
0.113029678463
0.113029905174
0.113030134031
0.113030362905
0.11303059766
0.113030829462
0.11303106466
0.113031299358
0.113031536178
0.113031771771
0.113032010287
0.113032249869
0.113032494313
0.113032736979
0.113032982908
0.113033224494
0.113033470584
0.113033717237
0.113033964443
0.113034214315
0.113034471468
0.11303472416
0.113034982108
0.113035235376
0.113035489956
0.113035744459
0.113036002852
0.113036263944
0.113036531391
0.113036803822
0.113037071987
0.1130373425
0.113037609021
0.113037873108
0.113038143793
0.11303841207
0.113038690406
0.113038970873
0.113039261066
0.113039550481
0.113039840556
0.113040129973
0.113040414045
0.113040696535
0.113040979386
0.113041272178
0.11304155898
0.113041846803
0.11304233056
0.113041759731
0.113040606537
0.11303958972
0.113039366857
0.113039426538
0.113039636468
0.113039911073
0.113040172695
0.11304042347
0.11304064314
0.113040842506
0.113041038653
0.113041266994
0.113041523599
0.113041805116
0.113042114394
0.113042458582
0.113042823566
0.113043200503
0.11304357059
0.11303106437
0.11303129928
0.113031536126
0.11303177174
0.113032010116
0.113032249789
0.113032494293
0.11303273696
0.113032982706
0.113033224319
0.113033470514
0.113033717212
0.113033964382
0.113034214457
0.113034471415
0.113034724032
0.113034981922
0.113035235146
0.113035489917
0.11303574434
0.113036002767
0.113036263745
0.113036531308
0.113036803665
0.113037071797
0.113037342508
0.113037609191
0.113037873197
0.113038143845
0.113038412106
0.113038690106
0.113038970918
0.113039260804
0.113039550615
0.113039840755
0.113040130194
0.113040414116
0.113040696292
0.113040979502
0.113041272346
0.113041559002
0.113041849401
0.113042332158
0.113041794913
0.113040661733
0.113039653814
0.113039423441
0.113039475874
0.113039674737
0.113039935591
0.113040182926
0.11304039892
0.113040594562
0.113040780242
0.113040971635
0.113041199989
0.113041461858
0.113041751997
0.113042071875
0.113042423548
0.113042796011
0.113043176898
0.113043550475
0.113031064353
0.113031299163
0.113031535896
0.11303177156
0.113032009974
0.113032249699
0.113032494256
0.113032736943
0.113032982642
0.113033224314
0.113033470376
0.113033716936
0.11303396432
0.113034214405
0.11303447143
0.113034724004
0.113034981779
0.113035234967
0.113035489751
0.113035744177
0.113036002702
0.113036263465
0.113036531416
0.113036803674
0.113037071716
0.113037342416
0.113037609228
0.113037873097
0.113038143733
0.113038411975
0.11303868997
0.113038971162
0.113039260801
0.11303955081
0.113039840778
0.113040130094
0.113040413941
0.113040695932
0.113040979618
0.113041272563
0.113041559425
0.113041852831
0.113042333651
0.113041828411
0.113040717411
0.1130397213
0.113039483686
0.113039528382
0.113039714139
0.1130399575
0.113040190723
0.113040365789
0.113040538513
0.113040715401
0.113040910506
0.113041142387
0.113041407663
0.113041703657
0.113042034009
0.113042393106
0.113042770668
0.113043153615
0.113043529771
0.113031064255
0.113031299051
0.113031535858
0.113031771451
0.113032009827
0.113032249547
0.113032494155
0.113032736825
0.113032982484
0.113033224094
0.113033470303
0.113033717091
0.113033964275
0.113034214163
0.113034471354
0.113034723955
0.113034981684
0.113035234928
0.113035489584
0.113035743932
0.113036002538
0.113036263314
0.113036531546
0.113036803708
0.113037071605
0.113037342274
0.113037609186
0.113037872918
0.113038143689
0.113038412087
0.113038690142
0.113038971294
0.113039260605
0.113039550637
0.113039840544
0.113040130014
0.113040414047
0.113040696217
0.113040980192
0.113041272666
0.113041559764
0.113041856229
0.113042334308
0.113041859609
0.113040773433
0.113039792385
0.113039547953
0.11303958396
0.113039754512
0.113039962757
0.113040193795
0.113040333784
0.113040485238
0.113040651916
0.113040848322
0.113041084207
0.113041357253
0.113041664145
0.113042002186
0.11304236599
0.113042747636
0.113043134526
0.113043514895
0.113031064261
0.113031298838
0.113031535615
0.113031771403
0.113032009658
0.113032249463
0.113032493964
0.113032736685
0.113032982418
0.113033224227
0.113033470181
0.113033716708
0.113033964056
0.113034214246
0.11303447128
0.113034723854
0.113034981557
0.113035234779
0.113035489479
0.113035743927
0.113036002525
0.113036263273
0.113036531473
0.113036803592
0.113037071492
0.1130373422
0.113037609138
0.113037872781
0.113038143685
0.113038411787
0.113038690153
0.113038971386
0.113039260649
0.113039550703
0.113039840505
0.113040129879
0.113040414006
0.11304069615
0.113040980359
0.113041272484
0.113041560256
0.113041860434
0.11304233478
0.113041888906
0.113040829948
0.113039866913
0.113039616262
0.11303964181
0.113039759399
0.113040001571
0.113040174079
0.113040304409
0.113040432048
0.113040591109
0.113040789214
0.113041030131
0.113041312673
0.113041630892
0.113041977316
0.113042345786
0.113042729153
0.113043118435
0.113043502718
0.11303106407
0.11303129879
0.113031535562
0.1130317713
0.113032009599
0.113032249308
0.113032493831
0.113032736569
0.113032982249
0.113033224026
0.113033470075
0.113033716748
0.113033964051
0.113034214061
0.11303447118
0.113034723795
0.113034981441
0.113035234721
0.11303548931
0.113035743814
0.11303600245
0.113036263277
0.113036531396
0.11303680358
0.113037071436
0.113037341974
0.113037608999
0.113037872595
0.113038143645
0.113038412128
0.113038690112
0.113038971211
0.113039260426
0.113039550607
0.113039840473
0.113040129946
0.113040414257
0.113040696264
0.113040980538
0.11304127191
0.113041560422
0.113041864478
0.113042334485
0.11304191602
0.113040886815
0.113039944902
0.113039688392
0.113039701826
0.113039816633
0.113040003748
0.11304013592
0.113040263524
0.113040384291
0.113040536234
0.113040736279
0.113040984021
0.113041274716
0.113041602385
0.11304195661
0.11304232872
0.113042713392
0.113043102414
0.113043486741
0.113031064115
0.113031298722
0.1130315355
0.113031771137
0.113032009465
0.113032249184
0.11303249376
0.113032736472
0.113032982054
0.11303322382
0.113033469822
0.113033716591
0.113033964033
0.113034214214
0.113034471125
0.113034723655
0.113034981125
0.113035234486
0.113035489281
0.113035743897
0.113036002554
0.113036263275
0.113036531124
0.11303680328
0.113037071184
0.113037341938
0.113037609108
0.113037872597
0.113038143784
0.11303841184
0.113038689788
0.113038971052
0.113039260386
0.113039551037
0.113039840721
0.113040130091
0.113040414338
0.113040695843
0.113040980334
0.113041271124
0.113041561031
0.113041869646
0.113042333782
0.113041940639
0.113040943311
0.113040025525
0.113039764083
0.113039763941
0.113039870518
0.113039999486
0.113040112934
0.11304021502
0.113040348774
0.113040484819
0.113040684403
0.113040938422
0.113041237495
0.113041573581
0.113041934524
0.113042308731
0.113042693987
0.113043088611
0.113043484548
0.11303106397
0.113031298535
0.113031535269
0.113031771175
0.11303200947
0.113032249046
0.113032493582
0.113032736295
0.113032981831
0.113033223591
0.113033469821
0.113033716644
0.113033963898
0.113034214039
0.113034470935
0.113034723569
0.113034981199
0.113035234544
0.113035489136
0.113035743727
0.11303600233
0.113036263212
0.113036531077
0.113036803331
0.113037071198
0.113037341774
0.113037608796
0.113037872253
0.11303814356
0.113038411992
0.113038690115
0.113038971256
0.11303926043
0.113039550693
0.113039840313
0.113040129712
0.11304041428
0.113040696267
0.113040980989
0.113041270855
0.113041562047
0.113041873878
0.113042331277
0.113041961837
0.113040999238
0.113040109212
0.113039844049
0.113039829478
0.113039908487
0.113040008512
0.113040085213
0.113040177209
0.113040298266
0.113040440405
0.113040640109
0.113040899246
0.113041205963
0.113041548895
0.113041914046
0.113042291707
0.113042679628
0.113043077798
0.113043475005
0.113031063839
0.113031298399
0.113031535161
0.113031771005
0.11303200926
0.113032249005
0.113032493421
0.113032736271
0.11303298165
0.113033223424
0.113033469664
0.11303371662
0.113033963972
0.113034213882
0.113034470828
0.113034723478
0.113034980968
0.113035234396
0.113035489005
0.113035743672
0.113036002276
0.113036263222
0.113036530923
0.113036803283
0.113037071092
0.113037341534
0.113037608617
0.113037872081
0.113038143607
0.113038412259
0.113038690089
0.113038971003
0.113039260318
0.113039550723
0.113039840366
0.113040129896
0.113040414498
0.113040696131
0.113040980992
0.113041269798
0.113041562699
0.113041879042
0.113042328597
0.11304198075
0.113041055
0.113040195163
0.113039926305
0.113039896295
0.113039943721
0.113039998645
0.113040052787
0.113040126029
0.113040245687
0.113040400615
0.113040600718
0.113040867457
0.113041182501
0.113041532773
0.113041902702
0.113042282498
0.113042673195
0.113043077353
0.11304348212
0.113031063733
0.113031298277
0.113031535029
0.113031770818
0.113032009224
0.113032248978
0.11303249334
0.113032736087
0.113032981473
0.113033223395
0.113033469559
0.113033716412
0.113033963746
0.113034213875
0.113034470668
0.113034723386
0.113034980885
0.11303523435
0.113035488906
0.113035743588
0.113036002095
0.113036263172
0.113036530693
0.113036803136
0.113037071046
0.113037341644
0.113037608568
0.113037872039
0.113038143388
0.113038412005
0.113038690049
0.113038971048
0.113039260622
0.113039550787
0.113039840266
0.113040129565
0.11304041422
0.113040696003
0.113040981182
0.113041269255
0.113041564194
0.11304188406
0.11304232445
0.113041995839
0.113041109289
0.113040282919
0.113040011889
0.113039964831
0.113039974835
0.113040008987
0.113040025294
0.113040077272
0.113040191296
0.113040365284
0.11304056164
0.113040832779
0.113041155703
0.113041513537
0.113041890261
0.113042273888
0.11304266738
0.113043072835
0.11304347839
0.113031063562
0.113031298215
0.113031534963
0.113031770729
0.113032009088
0.113032248945
0.113032493128
0.113032736113
0.113032981237
0.113033223164
0.113033469444
0.113033716448
0.113033963673
0.113034213764
0.113034470669
0.113034723294
0.11303498069
0.113035234245
0.113035488662
0.113035743482
0.113036001974
0.113036263221
0.11303653056
0.113036803061
0.113037070992
0.113037341493
0.113037608387
0.113037871841
0.113038143329
0.113038412237
0.113038690122
0.113038970833
0.113039260501
0.113039550732
0.113039840238
0.113040129781
0.113040414385
0.113040695831
0.113040981076
0.113041268001
0.113041565129
0.113041889068
0.113042319752
0.113042008368
0.113041163233
0.113040372477
0.113040100901
0.113040032395
0.113040012431
0.113040008487
0.113039987796
0.113040027841
0.113040141616
0.11304032744
0.113040525624
0.113040804008
0.113041135628
0.1130415002
0.113041879631
0.113042265037
0.113042659354
0.113043066523
0.113043470952
0.113031063557
0.113031298034
0.113031534929
0.113031770661
0.113032008962
0.113032248778
0.113032493058
0.113032736021
0.113032980958
0.113033222984
0.113033469262
0.113033716367
0.113033963762
0.113034213662
0.113034470446
0.113034723141
0.113034980477
0.113035234137
0.113035488544
0.113035743468
0.113036001769
0.113036263197
0.113036530352
0.113036802798
0.113037070878
0.113037341557
0.113037608291
0.113037872078
0.113038143305
0.113038411869
0.113038690142
0.113038970751
0.113039260626
0.113039550576
0.113039840107
0.113040129722
0.11304041431
0.113040695747
0.113040981213
0.113041267175
0.113041566671
0.113041893576
0.113042313779
0.113042017441
0.113041215978
0.113040463179
0.113040193339
0.113040100223
0.11304005192
0.113040002618
0.113039943641
0.113039978255
0.113040098207
0.113040293605
0.113040502281
0.113040786356
0.113041123635
0.113041492963
0.113041877023
0.113042263739
0.113042656178
0.113043061348
0.113043464928
0.1130310635
0.11303129799
0.113031534827
0.11303177057
0.113032008817
0.113032248762
0.113032492775
0.113032736028
0.113032980659
0.11303322286
0.113033469011
0.113033716354
0.113033963699
0.113034213617
0.113034470487
0.113034723109
0.113034980285
0.113035234057
0.11303548827
0.113035743359
0.113036001501
0.113036263148
0.113036530256
0.11303680277
0.113037070892
0.113037341477
0.113037608226
0.113037871787
0.113038143227
0.113038411496
0.113038690405
0.113038970748
0.113039260692
0.113039550412
0.113039840044
0.113040129812
0.113040414329
0.113040695606
0.113040981199
0.113041265887
0.113041568148
0.113041898051
0.113042307032
0.113042023749
0.113041267457
0.113040553918
0.113040286398
0.113040167723
0.113040099127
0.113039980823
0.113039902029
0.113039931598
0.113040053926
0.113040255596
0.113040472532
0.113040763848
0.113041107938
0.113041482696
0.113041871836
0.113042261162
0.113042656018
0.113043060968
0.113043464108
0.11303106341
0.113031297902
0.113031534565
0.113031770476
0.113032008758
0.113032248837
0.11303249287
0.11303273609
0.113032980222
0.113033222973
0.113033468214
0.113033715838
0.113033963705
0.113034213813
0.113034470679
0.113034723068
0.113034980098
0.113035234015
0.11303548805
0.113035743184
0.113036001274
0.113036263146
0.113036530143
0.113036802656
0.113037070714
0.113037341449
0.113037608141
0.113037872015
0.113038143149
0.113038411255
0.113038690447
0.113038970439
0.113039260777
0.113039550366
0.113039840085
0.113040129755
0.113040414146
0.113040695229
0.113040980992
0.113041264586
0.113041570266
0.113041902681
0.113042299333
0.113042027231
0.1130413168
0.113040643423
0.113040404311
0.113040221703
0.113040099461
0.113039963943
0.113039882306
0.113039901321
0.113040021208
0.113040226107
0.11304045229
0.113040748796
0.113041098322
0.113041476841
0.113041867554
0.113042257743
0.113042652879
0.113043058247
0.11304345931
0.113031063322
0.113031297704
0.113031534472
0.113031770403
0.113032008586
0.113032248956
0.113032492602
0.113032736172
0.113032979419
0.113033224027
0.113033467579
0.113033715414
0.113033963692
0.113034213268
0.113034470706
0.113034723131
0.113034980152
0.1130352341
0.113035487862
0.113035743073
0.113036001136
0.113036263012
0.113036529895
0.113036802395
0.113037070581
0.113037341697
0.113037608367
0.113037871769
0.113038143018
0.113038411024
0.113038690585
0.113038969859
0.113039260771
0.113039550049
0.113039840171
0.113040129739
0.113040414103
0.113040695323
0.113040981074
0.11304126322
0.113041572452
0.113041906036
0.113042290241
0.113042028048
0.113041363876
0.113040731196
0.113040473551
0.11304032506
0.113040154299
0.113039919656
0.113039842014
0.11303986698
0.113039994695
0.113040208223
0.113040443482
0.11304074356
0.113041094519
0.113041473298
0.113041864424
0.113042256072
0.113042649098
0.113043050358
0.113043444821
0.113043939846
0.113044322776
0.113044741575
0.113045221459
0.113045779314
0.113046407591
0.113047064612
0.113047729534
0.113048423042
0.11304882817
0.113049176707
0.11304960871
0.113050245984
0.113051041751
0.113051585744
0.113052340886
0.11305317941
0.113053711704
0.113054526237
0.113055604023
0.113057080623
0.11305873561
0.113059669337
0.113061980545
0.113063290804
0.113064852048
0.113066855287
0.113070355825
0.113072189803
0.113074206905
0.113076031779
0.113079047893
0.113081783132
0.113083630491
0.113086607578
0.113088863913
0.113091250837
0.113094724138
0.113096643262
0.11309978941
0.113102155161
0.1131055732
0.113107631456
0.113111307079
0.113113461216
0.113117073846
0.113119577759
0.113122255844
0.11312651639
0.113129713586
0.113131985955
0.113135671198
0.113138766674
0.113141560303
0.113145376286
0.113149515199
0.113152373072
0.113155830087
0.113158986687
0.113162850347
0.113166695992
0.113170562569
0.113043922186
0.113044309361
0.113044733428
0.113045217967
0.113045779118
0.113046407975
0.113047066432
0.113047732862
0.113048427327
0.113048816281
0.113049182878
0.11304963047
0.113050297978
0.113051096649
0.113051683738
0.113052435665
0.113052923208
0.113053655546
0.113054698315
0.113055887391
0.11305735015
0.113058803627
0.113060184707
0.113061818883
0.113063175048
0.113064909896
0.113066957267
0.113070365973
0.113072350075
0.113074399149