/*--------------------------------*- C++ -*----------------------------------*\
  =========                 |
  \\      /  F ield         | OpenFOAM: The Open Source CFD Toolbox
   \\    /   O peration     | Website:  https://openfoam.org
    \\  /    A nd           | Version:  6
     \\/     M anipulation  |
\*---------------------------------------------------------------------------*/
FoamFile
{
    version     2.0;
    format      ascii;
    class       volScalarField;
    location    "0.0002";
    object      p;
}
// * * * * * * * * * * * * * * * * * * * * * * * * * * * * * * * * * * * * * //

dimensions      [1 -1 -2 0 0 0 0];

internalField   nonuniform List<scalar> 
208908
(
217608.20297
216396.028661
215590.239947
214790.6428
213992.853642
213197.751877
212404.564879
211614.868369
210826.956108
210041.708623
209258.909528
208478.901958
207700.977464
206925.964191
206152.838688
205382.597018
204614.603206
203849.264681
203086.133984
202325.688933
201567.337363
200811.707711
200058.015744
199307.202712
198558.530242
197812.206035
197068.27839
196326.912292
195587.783987
194850.868946
194116.560896
193384.665359
192654.98542
191927.638442
191202.671235
190479.988228
189759.760891
189041.4142
188325.823988
187612.209066
186901.399947
186191.98937
185485.827382
184781.137202
184079.509394
183379.232352
182681.874954
181986.312775
181293.476255
180602.293004
179913.862197
179226.946229
178543.055324
177860.624395
177180.92901
176502.788424
175827.309652
175153.917567
174482.678684
173813.683992
173146.509937
172482.080717
217608.966364
216396.784907
215590.994182
214791.38527
213993.605422
213198.469747
212405.254532
211615.567857
210827.662222
210042.374013
209259.573941
208479.534897
207701.61482
206926.600448
206153.457457
205383.209027
204615.203011
203849.836266
203086.701164
202326.242235
201567.867189
200812.245769
200058.516073
199307.712554
198559.021945
197812.724984
197068.782816
196327.443676
195588.312221
194851.40676
194117.094463
193385.183172
192655.474663
191928.161732
191203.164903
190480.476426
189760.231905
189041.901803
188326.304076
187612.636071
186901.865039
186192.40426
185486.291679
184781.509615
184079.933152
183379.58232
182682.300585
181986.681284
181293.858402
180602.653701
179914.286461
179227.308007
178543.454519
177860.962506
177181.329183
176503.134515
175827.682979
175154.301794
174483.02841
173814.07702
173146.814333
172482.471791
217609.685391
216397.498643
215591.707326
214792.090553
213994.32338
213199.154222
212405.913569
211616.234063
210828.333695
210043.00727
209260.205813
208480.135799
207702.218733
206927.202755
206154.042813
205383.786062
204615.765315
203850.371357
203087.231136
202326.759583
201568.364643
200812.752273
200058.996086
199308.204338
198559.499594
197813.236047
197069.277469
196327.966618
195588.824688
194851.931548
194117.611958
193385.684797
192655.94933
191928.673973
191203.645481
190480.954876
189760.694808
189042.387318
188326.77563
187613.062023
186902.31667
186192.810663
185486.738202
184781.871846
184080.350116
183379.931748
182682.713468
181987.040112
181294.216971
180603.003405
179914.685393
179227.653786
178543.828264
177861.278988
177181.701252
176503.469238
175828.045825
175154.681729
174483.378959
173814.472854
173147.1241
172482.860509
217610.353314
216398.162888
215592.374119
214792.753865
213995.001039
213199.799225
212406.537193
211616.862337
210828.967245
210043.606192
209260.803999
208480.702814
207702.788617
206927.768337
206154.592763
205384.325285
204616.28864
203850.869006
203087.725105
202327.242704
201568.832962
200813.231696
200059.458319
199308.680457
198559.963376
197813.737731
197069.759599
196328.470046
195589.31211
194852.431833
194118.103221
193386.159349
192656.401251
191929.166595
191204.104312
190481.413437
189761.142776
189042.859121
188327.227502
187613.476737
186902.744772
186193.207565
185487.164585
184782.226164
184080.745591
183380.276766
182683.118826
181987.395212
181294.556097
180603.337823
179915.053566
179227.979808
178544.172665
177861.575563
177182.048723
176503.793071
175828.397243
175155.046086
174483.72064
173814.860584
173147.437965
172483.250567
217610.965808
216398.773804
215592.991144
214793.371299
213995.635119
213200.401538
212407.124149
211617.452513
210829.565075
210044.173181
209261.37108
208481.238344
207703.32684
206928.299318
206155.108631
205384.828821
204616.776685
203851.334755
203088.189444
202327.698931
201569.281029
200813.691444
200059.908036
199309.145568
198560.419095
197814.230945
197070.22947
196328.953989
195589.774497
194852.907502
194118.570057
193386.612268
192656.833342
191929.640841
191204.54532
190481.855809
189761.569037
189043.316865
188327.658347
187613.876684
186903.147807
186193.597585
185487.569868
184782.579905
184081.119433
183380.613124
182683.515397
181987.744723
181294.880915
180603.658277
179915.389957
179228.29139
178544.491045
177861.860641
177182.376265
176504.108897
175828.735252
175155.39364
174484.048584
173815.234302
173147.751956
172483.627367
217611.527189
216399.335081
215593.561134
214793.943941
213996.227202
213200.96421
212407.680408
211618.010624
210830.133658
210044.71393
209261.91142
208481.746933
207703.838294
206928.800751
206155.596736
205385.301681
204617.235857
203851.775647
203088.633096
202328.13718
201569.716275
200814.139648
200060.355772
199309.607503
198560.871362
197814.716415
197070.685365
196329.418578
195590.214642
194853.363814
194119.019099
193387.052965
192657.247492
191930.101042
191204.970712
190482.284197
189761.973408
189043.758385
188328.070546
187614.2661
186903.529211
186193.982209
185487.956563
184782.940508
184081.47196
183380.939593
182683.890917
181988.085509
181295.198269
180603.973124
179915.703362
179228.597162
178544.784501
177862.143977
177182.682953
176504.418633
175829.059229
175155.725315
174484.363554
173815.590821
173148.062122
172483.973471
217612.045646
216399.854577
215594.090531
214794.475884
213996.782379
213201.492842
212408.212344
211618.545379
210830.680683
210045.235392
209262.432475
208482.235961
207704.32937
206929.278168
206156.06414
205385.754081
204617.677437
203852.202252
203089.065595
202328.568767
201570.152135
200814.586553
200060.807714
199310.070246
198561.318801
197815.190611
197071.129189
196329.870335
195590.639107
194853.809176
194119.456649
193387.489963
192657.651001
191930.547984
191205.383309
190482.700528
189762.363923
189044.186721
188328.467225
187614.648946
186903.894921
186194.364284
185488.330278
184783.311507
184081.817801
183381.264559
182684.242965
181988.417119
181295.508509
180604.286967
179916.001343
179228.902441
178545.061291
177862.433916
177182.978046
176504.730373
175829.367643
175156.040109
174484.665085
173815.927897
173148.366759
172484.309684
217612.535273
216400.345722
215594.593367
214794.979568
213997.309176
213201.999176
212408.730922
211619.065856
210831.215146
210045.74513
209262.940788
208482.711922
207704.807504
206929.74041
206156.519504
205386.19416
204618.112125
203852.627949
203089.502909
202329.009134
201570.60036
200815.041861
200061.26641
199310.531853
198561.76032
197815.656469
197071.565862
196330.313863
195591.054303
194854.252147
194119.890474
193387.923663
192658.050882
191930.987788
191205.788031
190483.108895
189762.744797
189044.605288
188328.852524
187615.028912
186904.250141
186194.747244
185488.69663
184783.695851
184082.163579
183381.595772
182684.580122
181988.744507
181295.810882
180604.595961
179916.290511
179229.208951
178545.334019
177862.731831
177183.273827
176505.047235
175829.663155
175156.336562
174484.954139
173816.243787
173148.664039
172484.635177
217612.999651
216400.811657
215595.072907
214795.458538
213997.814143
213202.485181
212409.237799
211619.573108
210831.737931
210046.245279
209263.440395
208483.178709
207705.276912
206930.193345
206156.970949
205386.632743
204618.553397
203853.066572
203089.957999
202329.466659
201571.062578
200815.508053
200061.729383
199310.993338
198562.199689
197816.117857
197072.003693
196330.756204
195591.472708
194854.698717
194120.324482
193388.35497
192658.447835
191931.421177
191206.187673
190483.5152
189763.120983
189045.017248
188329.230444
187615.409809
186904.600006
186195.132973
185489.060486
184784.089575
184082.514493
183381.941205
182684.917765
181989.073948
181296.10674
180604.899802
179916.569973
179229.519083
178545.607225
177863.038141
177183.574539
176505.37244
175829.953238
175156.62805
174485.237117
173816.537434
173148.95286
172484.941447
217613.446637
216401.25972
215595.537944
214795.9209
213998.303979
213202.959347
212409.735996
211620.066114
210832.247106
210046.736104
209263.932504
208483.638829
207705.741261
206930.64144
206157.425275
205387.080142
204619.011604
203853.524864
203090.432511
202329.939992
201571.539308
200815.982978
200062.19888
199311.453163
198562.640167
197816.579889
197072.44939
196331.203556
195591.895549
194855.148752
194120.756518
193388.784209
192658.848246
191931.85571
191206.58952
190483.924515
189763.494021
189045.424638
188329.605656
187615.795536
186904.950572
186195.52474
185489.424612
184784.485224
184082.870034
183382.306822
182685.267755
181989.411357
181296.402178
180605.203935
179916.848447
179229.836153
178545.881319
177863.349014
177183.874878
176505.707576
175830.250175
175156.923703
174485.521491
173816.816332
173149.236515
172485.224157
217613.876336
216401.690219
215595.989441
214796.366558
213998.779736
213203.414589
212410.217973
211620.53808
210832.737158
210047.212721
209264.414759
208484.092068
207706.203287
206931.090053
206157.890031
205387.542206
204619.489641
203854.002971
203090.925334
202330.426226
201572.027068
200816.463963
200062.675878
199311.914777
198563.084571
197817.047789
197072.904378
196331.653159
195592.323515
194855.601447
194121.190263
193389.216015
192659.255614
191932.292338
191206.991828
190484.335245
189763.866111
189045.830394
188329.986214
187616.1903
186905.306869
186195.924035
185489.788776
184784.878462
184083.214026
183382.692721
182685.633917
181989.764277
181296.707213
180605.518144
179917.134026
179230.159065
178546.154446
177863.657557
177184.164546
176506.04176
175830.560253
175157.230129
174485.812643
173817.091796
173149.525306
172485.486653
217614.286548
216402.102039
215596.426895
214796.792944
213999.234415
213203.846112
212410.67588
211620.981756
210833.201845
210047.668459
209264.881071
208484.535001
207706.66344
206931.542715
206158.367546
205388.020172
204619.985175
203854.495557
203091.427707
202330.915604
201572.51622
200816.945404
200063.160367
199312.379267
198563.534384
197817.518331
197073.366201
196332.103974
195592.755588
194856.057447
194121.629609
193389.652711
192659.669484
191932.727389
191207.394771
190484.749144
189764.241403
189046.241637
188330.373068
187616.598329
186905.671489
186196.328578
185490.153691
184785.272059
184083.553368
183383.0844
182686.012967
181990.133971
181297.032668
180605.853845
179917.431352
179230.486732
178546.428593
177863.960805
177184.443492
176506.359066
175830.869463
175157.541907
174486.115377
173817.374171
173149.821967
172485.738904
217614.674356
216402.493188
215596.847642
214797.196019
213999.663065
213204.245404
212411.1014
211621.389723
210833.63505
210048.097429
209265.326456
208484.962534
207707.117424
206931.997817
206158.856386
205388.508401
204620.489032
203854.99309
203091.932509
202331.404373
201573.009056
200817.426064
200063.649881
199312.848889
198563.991145
197817.988745
197073.82992
196332.554129
195593.192584
194856.519457
194122.075706
193390.093395
192660.089401
191933.160896
191207.799554
190485.166667
189764.622809
189046.659208
188330.766631
187617.016366
186906.044086
186196.738179
185490.521029
184785.669334
184083.901612
183383.469769
182686.393061
181990.515788
181297.378866
180606.209395
179917.741833
179230.81838
178546.71128
177864.261952
177184.715802
176506.658196
175831.16684
175157.842825
174486.416689
173817.66416
173150.13065
172485.993274
217615.030321
216402.854278
215597.241321
214797.564352
214000.050879
213204.600703
212411.486207
211621.75546
210834.030166
210048.491004
209265.744245
208485.369681
207707.565326
206932.444537
206159.344984
205388.992438
204620.990703
203855.483643
203092.432725
202331.890046
201573.504532
200817.905894
200064.143886
199313.32132
198564.45274
197818.456518
197074.293448
196333.002715
195593.637024
194856.987797
194122.52967
193390.537021
192660.512987
191933.5887
191208.201762
190485.581113
189765.006562
189047.077552
188331.164201
187617.438243
186906.421168
186197.148528
185490.888405
184786.06509
184084.24958
183383.846007
182686.764959
181990.897278
181297.732475
180606.578691
179918.065425
179231.156617
178547.008389
177864.564482
177184.984532
176506.945365
175831.45129
175158.124059
174486.701994
173817.942711
173150.440937
172486.251467
217615.346222
216403.175443
215597.598727
214797.888624
214000.389688
213204.909554
212411.826135
211622.073638
210834.384291
210048.845601
209266.129437
208485.75181
207707.990702
206932.869129
206159.816907
205389.452969
204621.47132
203855.952948
203092.91515
202332.357885
201573.987826
200818.373603
200064.633706
199313.784014
198564.908908
197818.910774
197074.748678
196333.443201
195594.081692
194857.452981
194122.980731
193390.970205
192660.930571
191934.002226
191208.594666
190485.985351
189765.384722
189047.485727
188331.556238
187617.853584
186906.795832
186197.549531
185491.250272
184786.452832
184084.589749
183384.213863
182687.12229
181991.262821
181298.07899
180606.945822
179918.394062
179231.502684
178547.316005
177864.870302
177185.254626
176507.226283
175831.728348
175158.387108
174486.966679
173818.198696
173150.738506
172486.510375
171819.454501
171158.843891
170500.492945
169843.824499
169190.29514
168537.59907
167888.269069
167239.553308
166594.455133
165950.458947
165309.455362
164669.392486
164032.409578
163396.275561
162763.771105
162131.721004
161503.178167
160875.116911
160250.503899
159626.528325
159006.195407
158386.015922
157769.424657
157153.353912
156540.836111
155928.674963
155320.10759
154711.759119
154106.812199
153502.277448
152901.031623
152299.951094
151702.098835
151104.614342
150510.414435
149915.678151
149327.720408
148734.067777
148149.501067
147532.134758
147006.128997
146331.483748
145500.144691
149597.615194
154400.966547
154749.503839
153626.581515
152654.295574
151764.959228
151020.841984
150395.432493
150040.177549
149867.656042
149620.128806
149283.203053
148862.24806
148352.021989
147763.121326
147114.265228
146428.854128
145728.56978
145025.945629
144324.859164
171819.706075
171159.232674
170500.711882
169844.19311
169190.571899
168537.920161
167888.561134
167239.87237
166594.722467
165950.673501
165309.658364
164669.66447
164032.58197
163396.56545
162763.971206
162131.898719
161503.369478
160875.322536
160250.700882
159626.736293
159006.361239
158386.157632
157769.58755
157153.475914
156541.004909
155928.882413
155320.304577
154711.934258
154106.993082
153502.393065
152901.146652
152300.081496
151702.194923
151104.739507
150510.658984
149915.47248
149327.632183
148734.032671
148148.485531
147533.292374
147007.26018
146319.013521
145497.827268
149421.432887
154214.782588
154603.267243
153526.823817
152569.95851
151717.82734
151014.299804
150467.828599
150212.23714
150042.507709
149789.74588
149428.762914
148984.119891
148451.092826
147840.42099
147173.551987
146473.822543
145763.216254
145053.301502
144347.452897
171819.962946
171159.613248
170500.923714
169844.569838
169190.813622
168538.259898
167888.857911
167240.231871
166594.976079
165950.918435
165309.845496
164669.930839
164032.72114
163396.874963
162764.171124
162132.104461
161503.552451
160875.540267
160250.886692
159626.945571
159006.49773
158386.301902
157769.745751
157153.620072
156541.186042
155929.11196
155320.506649
154712.107764
154107.165865
153502.511454
152901.266177
152300.217124
151702.295173
151104.826399
150510.93661
149915.338391
149327.387312
148733.966208
148147.698145
147534.985171
147007.470438
146304.870175
145497.685893
149252.263609
154018.488789
154443.370793
153419.22009
152481.159392
151675.929472
151025.058884
150574.852367
150399.452305
150205.212814
149942.362027
149560.075594
149090.181226
148534.624243
147904.38942
147222.782825
146512.201986
145793.734459
145078.243297
144369.195677
171820.205392
171159.989175
170501.144696
169844.965825
169191.056122
168538.605438
167889.148558
167240.595885
166595.219924
165951.193259
165310.033034
164670.205724
164032.852702
163397.16964
162764.36588
162132.347111
161503.733841
160875.77038
160251.031538
159627.133426
159006.615554
158386.474733
157769.91748
157153.801941
156541.37735
155929.353556
155320.692268
154712.266852
154107.321718
153502.628625
152901.382429
152300.341916
151702.389385
151104.863183
150511.175472
149915.341978
149327.022855
148733.872156
148147.12593
147537.20772
147006.459468
146289.394562
145500.444358
149091.6279
153811.907327
154269.554174
153302.398455
152390.405517
151640.089392
151053.673919
150717.637766
150585.281498
150366.315871
150082.354958
149678.114673
149183.691788
148606.942912
147959.338817
147266.142753
146548.713895
145824.445408
145103.570747
144390.107404
171820.439627
171160.365361
170501.382696
169845.37475
169191.307436
168538.948853
167889.3934
167240.954369
166595.472503
165951.49567
165310.240932
164670.479288
164033.003298
163397.454333
162764.548123
162132.602523
161503.91858
160875.999776
160251.124403
159627.322605
159006.737413
158386.697312
157770.086917
157154.018461
156541.568326
155929.598357
155320.853852
154712.418534
154107.45516
153502.743084
152901.487355
152300.440896
151702.47963
151104.873095
150511.331792
149915.449895
149326.577698
148733.719326
148146.78081
147539.605383
147004.335712
146273.473971
145506.392512
148939.83625
153594.95737
154081.730488
153175.145762
152300.068746
151615.307714
151109.797859
150872.739881
150762.890302
150524.3674
150213.280151
149783.704689
149263.121004
148665.565325
148002.591101
147300.297123
146578.557608
145851.975145
145127.835537
144409.621956
171820.689232
171160.72433
170501.636691
169845.81969
169191.56173
168539.294742
167889.611251
167241.306541
166595.724166
165951.807712
165310.47523
164670.787705
164033.194926
163397.747396
162764.687287
162132.876175
161504.115718
160876.238949
160251.181067
159627.545757
159006.884029
158386.964885
157770.254668
157154.266354
156541.742568
155929.843053
155321.001276
154712.582027
154107.561299
153502.852839
152901.561585
152300.513515
151702.571805
151104.893062
150511.405865
149915.68718
149326.097694
148733.638258
148146.477339
147542.239187
147001.23028
146258.546614
145515.571871
148797.494625
153368.386062
153880.369171
153039.835586
152209.858118
151602.028884
151184.291922
151023.457317
150937.091838
150678.75547
150334.854019
149877.879052
149331.074583
148713.205049
148036.722081
147328.773015
146605.597218
145878.252054
145152.647559
144429.875527
171820.94585
171161.069416
170501.876999
169846.241768
169191.816003
168539.654189
167889.833427
167241.653778
166595.965086
165952.113394
165310.713844
164671.130592
164033.425312
163398.052174
162764.829909
162133.150601
161504.285375
160876.490351
160251.26921
159627.792388
159007.054993
158387.253213
157770.435438
157154.547269
156541.88394
155930.080259
155321.115599
154712.7519
154107.645151
153502.973928
152901.592443
152300.546096
151702.654548
151104.970287
150511.361195
149915.913367
149325.643433
148733.535212
148146.045224
147545.313481
146996.172941
146243.597117
145529.710152
148666.01379
153132.725934
153665.787231
152893.360518
152119.210296
151601.239922
151279.375736
151178.070277
151110.680282
150832.276523
150449.522181
149961.455721
149388.043815
148750.101378
148061.396923
147349.491569
146626.89573
145900.651447
145175.154522
144449.002029
171821.207402
171161.402429
170502.114466
169846.599595
169192.078508
168540.033427
167890.067
167242.01388
166596.207884
165952.414264
165310.947307
164671.490039
164033.676774
163398.376665
162764.992176
162133.433917
161504.436274
160876.765291
160251.414462
159628.06182
159007.204592
158387.577316
157770.606209
157154.874992
156541.97969
155930.30788
155321.21056
154712.929936
154107.690375
153503.106664
152901.590713
152300.583218
151702.691223
151105.057473
150511.231008
149916.214238
149325.270453
148733.475913
148145.557887
147548.29932
146989.672109
146230.719788
145548.081943
148545.552637
152888.100934
153438.779939
152735.436161
152024.935924
151610.026354
151394.835808
151340.307364
151272.474995
150976.926727
150555.364877
150034.92264
149434.916465
148777.532393
148078.897026
147364.817904
146643.572809
145919.059128
145193.959192
144467.147929
171821.465805
171161.722764
170502.3603
169846.92109
169192.3245
168540.435116
167890.297179
167242.393211
166596.458765
165952.726512
165311.180451
164671.843047
164033.945521
163398.727764
162765.175482
162133.742955
161504.607811
160877.084951
160251.610062
159628.365388
159007.356404
158387.91519
157770.779239
157155.1919
156542.065409
155930.529304
155321.258791
154713.118355
154107.692482
153503.248484
152901.572941
152300.654268
151702.665877
151105.184168
150510.978519
149916.640794
149324.901208
148733.425649
148144.732279
147551.474411
146982.063834
146219.163747
145571.043539
148437.439641
152635.240152
153200.222045
152569.379749
151932.153373
151638.777493
151520.118878
151517.445963
151426.005147
151110.104504
150650.867421
150097.983113
149472.23551
148797.558844
148091.637111
147376.427791
146656.651831
145934.134329
145208.734394
144484.450761
171821.716235
171162.02797
170502.615116
169847.23186
169192.540452
168540.820391
167890.49735
167242.799733
166596.714307
165953.06237
165311.427373
164672.197345
164034.215692
163399.088889
162765.380572
162134.08776
161504.830419
160877.444302
160251.837115
159628.698546
159007.530412
158388.259757
157770.926615
157155.497679
156542.141855
155930.72761
155321.258851
154713.282279
154107.631282
153503.462169
152901.540564
152300.761966
151702.580677
151105.336657
150510.798545
149916.814589
149324.649291
148733.440033
148144.024207
147554.717465
146973.041794
146209.645313
145598.200402
148342.066147
152374.25624
152951.18548
152394.11402
151842.065093
151685.025181
151628.015531
151711.53002
151572.641175
151225.917728
150733.017952
150150.251641
149499.862223
148809.976726
148099.128196
147383.172899
146664.778796
145944.096703
145219.887285
144500.780003
171821.956205
171162.306949
170502.873162
169847.530059
169192.737119
168541.156911
167890.666929
167243.200844
166596.976464
165953.42996
165311.682448
164672.541795
164034.476832
163399.448854
162765.606537
162134.474417
161505.105327
160877.823958
160252.077227
159629.052986
159007.732414
158388.599456
157771.069422
157155.807345
156542.212512
155930.893762
155321.229862
154713.416082
154107.57706
153503.640996
152901.473962
152300.89382
151702.411897
151105.538395
150510.613525
149916.973836
149324.335033
148733.506336
148143.251184
147557.968288
146962.977285
146202.561561
145629.449279
148259.828305
152105.832843
152693.462193
152205.049456
151768.951146
151714.571374
151739.475596
151906.623243
151714.840686
151329.40103
150806.266633
150196.364421
149523.131642
148819.300632
148104.363871
147387.306892
146669.912678
145949.376235
145228.210122
144516.40717
171822.190795
171162.562889
170503.118986
169847.802336
169192.926548
168541.4359
167890.826068
167243.558262
166597.256499
165953.823211
165311.952218
164672.889553
164034.749342
163399.80224
162765.861408
162134.87569
161505.389682
160878.227829
160252.337227
159629.434894
159007.941002
158388.941852
157771.223322
157156.110569
156542.268983
155931.074231
155321.20007
154713.558981
154107.489651
153503.775643
152901.416848
152301.060907
151702.223414
151105.76782
150510.410576
149917.022968
149324.156533
148733.416685
148142.4685
147560.793402
146951.532763
146198.690077
145664.411258
148190.391053
151829.908781
152429.879456
152005.294257
151707.233226
151745.584136
151879.146228
152086.206451
151849.230007
151420.110973
150864.753427
150229.887111
149539.275381
148825.839716
148107.649945
147388.967721
146671.101105
145950.893492
145234.281497
144533.351851
171822.43083
171162.803112
170503.354855
169848.048513
169193.112691
168541.69246
167890.981231
167243.883304
166597.537156
165954.258163
165312.221013
164673.234088
164035.050082
163400.165891
162766.137491
162135.289255
161505.65023
160878.636179
160252.617764
159629.849034
159008.148322
158389.283114
157771.405404
157156.405797
156542.329561
155931.293286
155321.206046
154713.742161
154107.38878
153503.890958
152901.275787
152301.204229
151702.046974
151105.820754
150510.309677
149916.967303
149323.990237
148733.301043
148141.730488
147563.532845
146938.037356
146198.143723
145703.543823
148133.282139
151549.411552
152164.383824
151804.563197
151647.400056
151796.854274
152065.878157
152224.062415
151959.402832
151496.307835
150911.718671
150253.225851
149549.207347
148830.290277
148109.748902
147389.186161
146670.200304
145950.54882
145242.329532
144555.265736
171822.684642
171163.040859
170503.596151
169848.278584
169193.307554
168541.936852
167891.148681
167244.192183
166597.792456
165954.64738
165312.484863
164673.597947
164035.362407
163400.527631
162766.391558
162135.678031
161505.926749
160879.028365
160252.925283
159630.238994
159008.382676
158389.611021
157771.616565
157156.694245
156542.461593
155931.486885
155321.272582
154713.925401
154107.354191
153503.979899
152901.211327
152301.249618
151701.94042
151105.798504
150510.201096
149916.893529
149323.845635
148733.16384
148140.852173
147565.997506
146922.104859
146201.418947
145747.013344
148086.975771
151267.744196
151900.616128
151589.722262
151592.9229
151873.932914
152257.404646
152325.478426
152044.829697
151558.936574
150951.393819
150272.510389
149555.865631
148832.396464
148110.128012
147387.252939
146665.235108
145950.964917
145254.877462
144587.136573
171822.952998
171163.282964
170503.848099
169848.503332
169193.516051
168542.173972
167891.340889
167244.485009
166598.033717
165954.987496
165312.739084
164673.95029
164035.681492
163400.880466
162766.640309
162136.037042
161506.189727
160879.4033
160253.217345
159630.610901
159008.624345
158389.941399
157771.817957
157156.984858
156542.606629
155931.677375
155321.347597
154714.09716
154107.375382
153504.089065
152901.210076
152301.263194
151701.840421
151105.728058
150510.087181
149916.811595
149323.725813
148732.94907
148139.965234
147567.972297
146904.280202
146210.316162
145793.651029
148050.297346
150987.294396
151642.169587
151388.002874
151535.852001
151970.661271
152424.034798
152405.289612
152112.511873
151608.872469
150981.986625
150285.433079
149560.442182
148833.921634
148109.542965
147381.740781
146660.130221
145955.601778
145275.739564
144626.239367
143630.021241
142938.980112
142251.413717
141564.774413
140888.825383
140223.750444
139585.391188
138982.357446
138415.44709
137912.99654
137496.261723
137205.121404
137045.930609
136954.489976
136882.274156
136780.988206
136624.530785
136407.71546
136134.727366
135810.742394
135440.878653
135031.821166
134589.373466
134119.144415
133625.363484
133112.800582
132591.506737
132058.684567
131519.124549
130971.251307
130420.656264
129868.87922
129313.793264
128760.299484
128203.992812
127650.51384
127095.631279
126539.80589
125986.035802
125431.148473
124880.361064
124329.06587
123780.908085
123233.968618
122690.060515
122149.890587
121612.643038
121082.021986
120556.214071
120038.681546
119528.854481
119025.454573
118531.774377
118043.309606
117566.465293
117096.788055
116641.094956
116195.911245
115765.470348
115357.507246
114962.684474
114599.643899
143651.521248
142958.206321
142269.387247
141580.651904
140896.653026
140228.543173
139585.594623
138974.234997
138409.831915
137891.245111
137445.483267
137119.864845
136949.445654
136926.920937
136899.793436
136815.854605
136666.440685
136454.245506
136181.336187
135854.253728
135480.499878
135068.406525
134624.21065
134153.879038
133660.442986
133146.912216
132619.118367
132077.946729
131532.468178
130980.582057
130427.431504
129873.077934
129315.967307
128760.839845
128203.06366
127646.82104
127090.064005
126533.087132
125979.916297
125425.516168
124875.850553
124325.393615
123778.397055
123232.396581
122689.147711
122148.954798
121609.708889
121076.463817
120546.089283
120022.494286
119505.813415
118994.470841
118492.425722
117995.721044
117508.64551
117027.040859
116555.879821
116094.251198
115642.845184
115209.848094
114787.632909
114389.971785
143670.372772
142974.370999
142284.546408
141596.426834
140908.973825
140243.369127
139599.531073
138987.566518
138423.823174
137909.315051
137472.244492
137138.141632
136955.323531
136918.878217
136889.374719
136806.680647
136660.771038
136452.329152
136183.450692
135859.932949
135489.418106
135079.971992
134636.846175
134165.37503
133674.104203
133166.70202
132637.171383
132091.473794
131541.56924
130985.887755
130430.148429
129873.594429
129315.244926
128758.215493
128197.595274
127640.056137
127083.028198
126526.120576
125973.003342
125419.206512
124870.470538
124320.83724
123775.087169
123230.290959
122687.959765
122148.499217
121608.885165
121074.127559
120540.809043
120012.707034
119490.596672
118972.16787
118462.075672
117957.379758
117461.236395
116970.466674
116488.080444
116013.883121
115546.476195
115095.245458
114652.594242
114228.224655
143686.427084
142987.785351
142296.649645
141609.079194
140927.952245
140267.093316
139624.472455
139023.868049
138463.850588
137975.338205
137560.275685
137249.073643
137049.1689
136927.569691
136854.512431
136757.193152
136610.228852
136404.347458
136141.493516
135826.923289
135465.689112
135064.262074
134627.065795
134159.918646
133668.572573
133159.476793
132633.880477
132092.206875
131543.812906
130987.337026
130430.158254
129871.666927
129310.997768
128751.805385
128190.546312
127633.032402
127075.987108
126519.307225
125966.463271
125413.09297
124864.844183
124315.817722
123770.990161
123227.314778
122685.855737
122147.194928
121607.925101
121072.465523
120537.800898