/*--------------------------------*- C++ -*----------------------------------*\
  =========                 |
  \\      /  F ield         | OpenFOAM: The Open Source CFD Toolbox
   \\    /   O peration     | Website:  https://openfoam.org
    \\  /    A nd           | Version:  6
     \\/     M anipulation  |
\*---------------------------------------------------------------------------*/
FoamFile
{
    version     2.0;
    format      ascii;
    class       volScalarField;
    location    "0.0002";
    object      H2O2;
}
// * * * * * * * * * * * * * * * * * * * * * * * * * * * * * * * * * * * * * //

dimensions      [0 0 0 0 0 0 0];

internalField   nonuniform List<scalar> 
208908
(
4.91223065114e-08
4.97090723698e-08
5.02558169685e-08
5.07759396743e-08
5.12932418316e-08
5.18136957838e-08
5.23389797285e-08
5.28688043532e-08
5.34041628995e-08
5.3945034862e-08
5.44912874999e-08
5.50427190474e-08
5.5599931561e-08
5.61624840965e-08
5.67311550191e-08
5.73054044319e-08
5.78856219285e-08
5.84715633781e-08
5.90635103536e-08
5.96614819517e-08
6.02658629918e-08
6.08762317729e-08
6.14932429901e-08
6.2116309212e-08
6.27457942956e-08
6.33824717274e-08
6.40246570892e-08
6.46737376611e-08
6.53300274741e-08
6.59932760011e-08
6.66633834406e-08
6.73400858619e-08
6.802356922e-08
6.87146011661e-08
6.94133818234e-08
7.01191076928e-08
7.08319646482e-08
7.1553789282e-08
7.22814362786e-08
7.30179628254e-08
7.37602972825e-08
7.45124735251e-08
7.52720576497e-08
7.60404291668e-08
7.6815652146e-08
7.76016533349e-08
7.8392700492e-08
7.9193850714e-08
8.00014597409e-08
8.08208373783e-08
8.1648491704e-08
8.24870724428e-08
8.33287565644e-08
8.41807491033e-08
8.50458838276e-08
8.59194052778e-08
8.68019801089e-08
8.76934961903e-08
8.85962211809e-08
8.95038846226e-08
9.04293901287e-08
9.1354854339e-08
4.91218541649e-08
4.97086176392e-08
5.02553547149e-08
5.07754746834e-08
5.12927657013e-08
5.18132257735e-08
5.23385325001e-08
5.28683481262e-08
5.34036949154e-08
5.39445729497e-08
5.44908279864e-08
5.5042274939e-08
5.55994842554e-08
5.61620299345e-08
5.67307113136e-08
5.73049573395e-08
5.78851764624e-08
5.84711258556e-08
5.90630713973e-08
5.9661053846e-08
6.02654432589e-08
6.08757946368e-08
6.14928168389e-08
6.2115973793e-08
6.27454346801e-08
6.33819603725e-08
6.40240762935e-08
6.46732170881e-08
6.53296717179e-08
6.59928187337e-08
6.66626580401e-08
6.73397888433e-08
6.80231298432e-08
6.87142487765e-08
6.9412955056e-08
7.01186560817e-08
7.08316508468e-08
7.15531536563e-08
7.22806756101e-08
7.3017322228e-08
7.37601645012e-08
7.45121609426e-08
7.52716040453e-08
7.60402029244e-08
7.68150975702e-08
7.76011115977e-08
7.83923483848e-08
7.91934096396e-08
8.00009086153e-08
8.08203579275e-08
8.16480369826e-08
8.24865799737e-08
8.33284068688e-08
8.41801662708e-08
8.50455493144e-08
8.59183934276e-08
8.68011958353e-08
8.76933885851e-08
8.85960158047e-08
8.95033358405e-08
9.04289305842e-08
9.13540719319e-08
4.91214275235e-08
4.9708187818e-08
5.02549190614e-08
5.0775031893e-08
5.12923103204e-08
5.18127759757e-08
5.23381015477e-08
5.28679151875e-08
5.3403247348e-08
5.39441366844e-08
5.44903854591e-08
5.50418543764e-08
5.55990588112e-08
5.61615988972e-08
5.67302865262e-08
5.73045357724e-08
5.78847497199e-08
5.84707199417e-08
5.90626636079e-08
5.96606502425e-08
6.02650471264e-08
6.08753882909e-08
6.14924408476e-08
6.21155098238e-08
6.27448932623e-08
6.33815536917e-08
6.40236853066e-08
6.46729123197e-08
6.53293133619e-08
6.59923967585e-08
6.666220597e-08
6.73390792136e-08
6.80228986627e-08
6.87137516123e-08
6.9412438074e-08
7.01181648303e-08
7.0831063632e-08
7.15529653403e-08
7.22805299653e-08
7.30166220862e-08
7.3759106938e-08
7.45119066711e-08
7.5271408378e-08
7.60395725109e-08
7.68145335159e-08
7.76006748314e-08
7.8391784379e-08
7.9193154626e-08
8.00009716495e-08
8.08199073291e-08
8.16473131605e-08
8.24860773875e-08
8.3327767925e-08
8.41799150574e-08
8.50450334052e-08
8.59181553012e-08
8.68009512902e-08
8.76926447455e-08
8.85954498147e-08
8.9502973279e-08
9.04286116599e-08
9.13533091165e-08
4.91210306049e-08
4.97077877662e-08
5.02545122021e-08
5.0774616416e-08
5.12918774221e-08
5.18123488781e-08
5.23376906134e-08
5.2867506998e-08
5.34028233574e-08
5.39437222223e-08
5.4489966957e-08
5.50414533485e-08
5.55986523934e-08
5.61611967174e-08
5.67298772875e-08
5.73041342283e-08
5.78843566907e-08
5.84703314317e-08
5.90622850663e-08
5.96602743219e-08
6.02646660231e-08
6.08750266389e-08
6.14919808038e-08
6.21154096451e-08
6.2744811149e-08
6.33808942163e-08
6.40229056035e-08
6.46723470622e-08
6.53288742218e-08
6.59920080699e-08
6.66617013077e-08
6.73387484071e-08
6.80223856076e-08
6.87132631678e-08
6.94124533996e-08
7.01174413848e-08
7.08307580555e-08
7.15521563516e-08
7.22796977084e-08
7.30165209338e-08
7.37590989529e-08
7.45111763502e-08
7.52707420203e-08
7.60391692683e-08
7.68142054281e-08
7.76004924415e-08
7.83916861971e-08
7.91927159753e-08
8.00000083159e-08
8.08197286705e-08
8.16471013412e-08
8.2485467555e-08
8.3327468624e-08
8.41794070198e-08
8.50446199462e-08
8.5917782131e-08
8.68006978747e-08
8.76926113668e-08
8.85944024266e-08
8.95021570873e-08
9.04274974055e-08
9.13534340393e-08
4.91206659557e-08
4.97074194704e-08
5.02541364034e-08
5.07742304341e-08
5.12914685431e-08
5.1811947951e-08
5.23373020048e-08
5.28671210162e-08
5.34024216737e-08
5.39433339838e-08
5.4489560694e-08
5.50410770245e-08
5.55982662272e-08
5.61608062998e-08
5.67294946567e-08
5.73037571261e-08
5.78839699983e-08
5.8469981812e-08
5.90619168938e-08
5.96599157425e-08
6.0264315146e-08
6.0874644537e-08
6.14916425376e-08
6.21149455037e-08
6.27443623616e-08
6.33806984499e-08
6.40225578854e-08
6.46718411448e-08
6.53283922924e-08
6.5991865286e-08
6.6661303908e-08
6.73382793087e-08
6.80217341921e-08
6.87127827632e-08
6.94116774362e-08
7.0117229356e-08
7.0830115101e-08
7.15516655955e-08
7.227950766e-08
7.30159196618e-08
7.37587443671e-08
7.45110874227e-08
7.52700739774e-08
7.60384300905e-08
7.68137630425e-08
7.76002158313e-08
7.83912832123e-08
7.91921753467e-08
7.99997912631e-08
8.08191206051e-08
8.16465671772e-08
8.24853525022e-08
8.33268148913e-08
8.41790790978e-08
8.50443196187e-08
8.59168458236e-08
8.68003187891e-08
8.76915041478e-08
8.85946044858e-08
8.95020848545e-08
9.04275968898e-08
9.13527472088e-08
4.91203308613e-08
4.97070804384e-08
5.02537899253e-08
5.07738711201e-08
5.12910876019e-08
5.18115672681e-08
5.23369379333e-08
5.28667475669e-08
5.34020465874e-08
5.39429551983e-08
5.4489178048e-08
5.50407110823e-08
5.55978976263e-08
5.61604338887e-08
5.67291275203e-08
5.73033886006e-08
5.7883615374e-08
5.84696370071e-08
5.90615704189e-08
5.96595661938e-08
6.0263966721e-08
6.08742799336e-08
6.14913115442e-08
6.21144417348e-08
6.27438799789e-08
6.33802310645e-08
6.40225217238e-08
6.46715041705e-08
6.53279233507e-08
6.59912010397e-08
6.66609267872e-08
6.73377556477e-08
6.8021683699e-08
6.87121480905e-08
6.94113195598e-08
7.01167242142e-08
7.08296767726e-08
7.15515422254e-08
7.22790745828e-08
7.30154864318e-08
7.37581472499e-08
7.45104115201e-08
7.52697018469e-08
7.6038182346e-08
7.68133700037e-08
7.75997664051e-08
7.8390687589e-08
7.91916660512e-08
7.9999263645e-08
8.08188973021e-08
8.16462390382e-08
8.24846557797e-08
8.33264390738e-08
8.41788676844e-08
8.50435926627e-08
8.59166679872e-08
8.67996851706e-08
8.76915934922e-08
8.8593881747e-08
8.95014080876e-08
9.04269587883e-08
9.13520431424e-08
4.91200200571e-08
4.97067655384e-08
5.02534666576e-08
5.07735383622e-08
5.12907275505e-08
5.18112119228e-08
5.23365844802e-08
5.2866393781e-08
5.34016788742e-08
5.3942589368e-08
5.44888085733e-08
5.50403566873e-08
5.55975368884e-08
5.61600793174e-08
5.67287636102e-08
5.73030401282e-08
5.78832680182e-08
5.84693011813e-08
5.90612309856e-08
5.96592190968e-08
6.02636251774e-08
6.08739123858e-08
6.14909527787e-08
6.2113983531e-08
6.27434272272e-08
6.33799205019e-08
6.40221117772e-08
6.46711416531e-08
6.53276361959e-08
6.59905021208e-08
6.66603409906e-08
6.73375584108e-08
6.80212011675e-08
6.87119781596e-08
6.94108984313e-08
7.01163042236e-08
7.08292707526e-08
7.15505306089e-08
7.22786988091e-08
7.30153814335e-08
7.37579575552e-08
7.45099673131e-08
7.52695045559e-08
7.60377645086e-08
7.68128587017e-08
7.75993127244e-08
7.8390385344e-08
7.91915095537e-08
7.99989490701e-08
8.08180946911e-08
8.1645659592e-08
8.24845062994e-08
8.33262838536e-08
8.41783406009e-08
8.50431241385e-08
8.59163610615e-08
8.67993675276e-08
8.76907163531e-08
8.85933013407e-08
8.95008450163e-08
9.04262121937e-08
9.13520940106e-08
4.91197254503e-08
4.97064663973e-08
5.02531592826e-08
5.07732217048e-08
5.12903893408e-08
5.18108710126e-08
5.23362405394e-08
5.28660475121e-08
5.34013139305e-08
5.39422343702e-08
5.44884456906e-08
5.50400056033e-08
5.55971891067e-08
5.61597208819e-08
5.67284197794e-08
5.73026883919e-08
5.78829300142e-08
5.84689633102e-08
5.90608930063e-08
5.96588673981e-08
6.02632572785e-08
6.08735467631e-08
6.14905525292e-08
6.21136686194e-08
6.27430738307e-08
6.33795476208e-08
6.40216422578e-08
6.46706580878e-08
6.53271534381e-08
6.59902077851e-08
6.66601306836e-08
6.73371636484e-08
6.80205907257e-08
6.8711431917e-08
6.94103252345e-08
7.01160053948e-08
7.08291774268e-08
7.15502079185e-08
7.22780519514e-08
7.30148454818e-08
7.37574805597e-08
7.45095141014e-08
7.52687662257e-08
7.60372097258e-08
7.68126484717e-08
7.75989016826e-08
7.83897111855e-08
7.91909089253e-08
7.99987155822e-08
8.08182025211e-08
8.16454374683e-08
8.2483910963e-08
8.33259794485e-08
8.41777576777e-08
8.50429603414e-08
8.59161692807e-08
8.6798455629e-08
8.76900859174e-08
8.85934391226e-08
8.95003781674e-08
9.04255018514e-08
9.13514098548e-08
4.91194451753e-08
4.97061814467e-08
5.02528653614e-08
5.077292136e-08
5.1290067284e-08
5.18105461496e-08
5.23359041942e-08
5.28657038569e-08
5.34009600949e-08
5.39418810041e-08
5.4488085522e-08
5.50396669155e-08
5.5596835666e-08
5.61593707774e-08
5.67280728116e-08
5.73023478837e-08
5.78825805798e-08
5.84686250908e-08
5.90605271344e-08
5.96585071727e-08
6.02628842206e-08
6.08731511185e-08
6.14901741128e-08
6.2113205167e-08
6.27427164545e-08
6.33790021325e-08
6.40212359098e-08
6.46703341123e-08
6.532684492e-08
6.59898395816e-08
6.66597309038e-08
6.73367178346e-08
6.80202019405e-08
6.87109743536e-08
6.94100943032e-08
7.0115474222e-08
7.08284768592e-08
7.15499396119e-08
7.22776560959e-08
7.30146188229e-08
7.37570220555e-08
7.4509074846e-08
7.52684619682e-08
7.60367946487e-08
7.68118735784e-08
7.75985347541e-08
7.8389357526e-08
7.91902667379e-08
7.99983937744e-08
8.08178230708e-08
8.16451699318e-08
8.24837114265e-08
8.33253029283e-08
8.41774847257e-08
8.5042203458e-08
8.59151656107e-08
8.67984207301e-08
8.76897874369e-08
8.85928245114e-08
8.9500236086e-08
9.04253268414e-08
9.13511637459e-08
4.91191746091e-08
4.97059062678e-08
5.02525798314e-08
5.07726321809e-08
5.12897575853e-08
5.18102310988e-08
5.2335571176e-08
5.28653685e-08
5.34006101563e-08
5.39415399851e-08
5.44877259451e-08
5.50393278927e-08
5.559648159e-08
5.61590294849e-08
5.67277252345e-08
5.73019931314e-08
5.78822342424e-08
5.84682578942e-08
5.90601587858e-08
5.96581228905e-08
6.0262483071e-08
6.08727582645e-08
6.14897596818e-08
6.21128726699e-08
6.27423889066e-08
6.33785942389e-08
6.4020738478e-08
6.46698145571e-08
6.53264301643e-08
6.59895002524e-08
6.66591409978e-08
6.73363027954e-08
6.80198440422e-08
6.87106203874e-08
6.94096798436e-08
7.01150656919e-08
7.08280257343e-08
7.15495040481e-08
7.22774447147e-08
7.30139480103e-08
7.37565767964e-08
7.45087673727e-08
7.52679752595e-08
7.60362954299e-08
7.68116825532e-08
7.75979365494e-08
7.83890967224e-08
7.91901904561e-08
7.99977769996e-08
8.08171747439e-08
8.16445962171e-08
8.24832576233e-08
8.33250883825e-08
8.41768240639e-08
8.50421609849e-08
8.5915164741e-08
8.67977577408e-08
8.76892581495e-08
8.85921199299e-08
8.94997580473e-08
9.04249619273e-08
9.13505377721e-08
4.91189144147e-08
4.97056418499e-08
5.02523020836e-08
5.0772356495e-08
5.12894563969e-08
5.18099298872e-08
5.23352491325e-08
5.28650443645e-08
5.34002773026e-08
5.39412062223e-08
5.44873728453e-08
5.50389886386e-08
5.55961369334e-08
5.61586792177e-08
5.67273771071e-08
5.73016417266e-08
5.78818568145e-08
5.8467887436e-08
5.90597631322e-08
5.96577246011e-08
6.02620725158e-08
6.08723530535e-08
6.148935098e-08
6.2112428661e-08
6.27419452546e-08
6.33781483893e-08
6.40204533189e-08
6.46695119114e-08
6.5325950268e-08
6.59889514724e-08
6.66589388245e-08
6.73358567257e-08
6.80194512815e-08
6.87102017634e-08
6.94089884165e-08
7.01146919535e-08
7.08277561152e-08
7.15489235828e-08
7.22769924754e-08
7.30136081447e-08
7.37560993883e-08
7.45084550603e-08
7.52678452476e-08
7.60359316499e-08
7.68107553253e-08
7.75969380317e-08
7.83887626664e-08
7.91899433717e-08
7.99973195789e-08
8.08168550625e-08
8.16443325191e-08
8.24829734567e-08
8.33247124926e-08
8.41765139815e-08
8.50419127952e-08
8.59147347996e-08
8.67973588716e-08
8.76886538994e-08
8.85918429447e-08
8.94992505912e-08
9.04247428719e-08
9.13496133685e-08
4.91186661697e-08
4.97053888299e-08
5.02520342115e-08
5.07720927724e-08
5.12891692387e-08
5.18096424261e-08
5.23349432557e-08
5.28647406195e-08
5.3399966501e-08
5.39408799177e-08
5.44870367699e-08
5.50386564955e-08
5.55957902842e-08
5.61583436441e-08
5.67270121253e-08
5.73012861977e-08
5.78814711207e-08
5.84674952754e-08
5.90593518044e-08
5.96573264251e-08
6.02616657812e-08
6.08719284702e-08
6.14889237897e-08
6.21120830415e-08
6.27415906313e-08
6.33778732776e-08
6.40199736121e-08
6.46689236729e-08
6.53255569422e-08
6.59885849939e-08
6.66583937398e-08
6.73353263479e-08
6.80191703134e-08
6.87097710277e-08
6.94085378081e-08
7.01142421236e-08
7.0827437483e-08
7.15485204173e-08
7.22764660954e-08
7.30130132489e-08
7.37557583816e-08
7.45080471063e-08
7.52673842552e-08
7.603538389e-08
7.68105748992e-08
7.75972523487e-08
7.83883577777e-08
7.91888235291e-08
7.99969057821e-08
8.08167476458e-08
8.1643763295e-08
8.24822750293e-08
8.33240471267e-08
8.41761654759e-08
8.5041080665e-08
8.59145376521e-08
8.67969368184e-08
8.76879884193e-08
8.859152389e-08
8.9499181056e-08
9.04240504692e-08
9.13497166318e-08
4.91184322876e-08
4.97051494285e-08
5.02517781271e-08
5.07718438054e-08
5.12888968534e-08
5.18093766756e-08
5.23346599712e-08
5.286446492e-08
5.33996757561e-08
5.39405819327e-08
5.44867072314e-08
5.50383402576e-08
5.559545883e-08
5.6158009573e-08
5.67266492473e-08
5.73009161254e-08
5.78810812009e-08
5.84670949888e-08
5.90589380943e-08
5.96569306143e-08
6.02612523646e-08
6.08715171993e-08
6.14885268142e-08
6.21115169475e-08
6.27410059843e-08
6.33774330355e-08
6.40198422688e-08
6.46687665602e-08
6.53250170828e-08
6.59880386748e-08
6.66580387019e-08
6.73349548548e-08
6.80187239429e-08
6.87092753724e-08
6.9408215172e-08
7.01135967138e-08
7.08269642099e-08
7.15481527875e-08
7.22760954636e-08
7.30127477132e-08
7.37552615802e-08
7.45075709564e-08
7.52668037941e-08
7.60347577679e-08
7.68103107706e-08
7.75967658104e-08
7.83876912147e-08
7.91886038346e-08
7.99963070188e-08
8.08160005291e-08
8.16434996463e-08
8.24819687495e-08
8.33237546174e-08
8.4175785022e-08
8.50410875735e-08
8.59137775575e-08
8.67965292682e-08
8.76878383478e-08
8.8591210675e-08
8.94986734941e-08
9.04233832381e-08
9.13494382358e-08
4.91182188376e-08
4.97049299138e-08
5.02515399964e-08
5.07716173852e-08
5.12886505521e-08
5.18091367319e-08
5.23344089152e-08
5.2864219601e-08
5.3399418071e-08
5.39403027625e-08
5.44864065227e-08
5.50380432903e-08
5.5595135274e-08
5.61576866586e-08
5.67262960222e-08
5.73005486179e-08
5.78806868429e-08
5.84667007394e-08
5.90585352952e-08
5.96565458151e-08
6.02608432114e-08
6.08711247906e-08
6.14880252228e-08
6.21113592432e-08
6.27407162668e-08
6.33769482981e-08
6.40190676232e-08
6.46680990709e-08
6.53247169249e-08
6.59879559912e-08
6.66575848247e-08
6.73344058695e-08
6.80181363105e-08
6.87090335297e-08
6.94079132113e-08
7.01132210468e-08
7.08267341937e-08
7.15476437655e-08
7.22756829507e-08
7.30122569726e-08
7.37548171087e-08
7.4506969448e-08
7.52662214842e-08
7.60345842562e-08
7.68096678875e-08
7.75959693835e-08
7.8387433474e-08
7.91882399034e-08
7.99958817385e-08
8.0815645104e-08
8.16430278876e-08
8.24814418443e-08
8.33232269127e-08
8.41752936247e-08
8.50407945609e-08
8.59136381063e-08
8.67961697533e-08
8.76873261625e-08
8.85904694473e-08
8.94980997556e-08
9.0423344711e-08
9.13487313726e-08
4.91180303206e-08
4.97047353833e-08
5.02513248613e-08
5.07714211832e-08
5.12884358797e-08
5.18089278859e-08
5.23341834169e-08
5.28640179864e-08
5.33991840945e-08
5.3940058849e-08
5.4486130508e-08
5.50377634758e-08
5.55948353637e-08
5.61573866345e-08
5.67259524018e-08
5.73002017344e-08
5.78803107488e-08
5.84663262143e-08
5.90581571761e-08
5.96561774194e-08
6.02604511012e-08
6.0870727011e-08
6.14876765413e-08
6.21107451831e-08
6.27403867017e-08
6.3376683962e-08
6.40186149621e-08
6.46677542091e-08
6.53244714892e-08
6.5987178734e-08
6.6656939756e-08
6.73340696216e-08
6.80179686407e-08
6.87086413467e-08
6.94075788513e-08
7.01128281481e-08
7.08261035327e-08
7.15475145929e-08
7.22752937502e-08
7.30114288566e-08
7.37543955124e-08
7.45065161355e-08
7.52658333669e-08
7.6034459414e-08
7.68095918741e-08
7.75956311283e-08
7.83868443374e-08
7.91877441844e-08
7.99956995578e-08
8.08149530328e-08
8.16424327534e-08
8.24813658411e-08
8.33231458416e-08
8.41747728619e-08
8.50405269808e-08
8.59127654812e-08
8.67956008115e-08
8.7687019803e-08
8.85900817396e-08
8.94977765199e-08
9.04225587194e-08
9.13488510564e-08
9.22967411541e-08
9.32433862202e-08
9.42081070323e-08
9.51805436616e-08
9.61675171482e-08
9.71568638667e-08
9.81603601823e-08
9.91748737587e-08
1.0020584826e-07
1.01239809421e-07
1.0228945439e-07
1.03351122594e-07
1.04414280103e-07
1.05500476465e-07
1.06603233646e-07
1.07703072198e-07
1.0882238807e-07
1.09954486638e-07
1.11093043649e-07
1.12257598943e-07
1.13418934644e-07
1.14605786933e-07
1.15796502803e-07
1.17018836486e-07
1.18227995388e-07
1.19465874407e-07
1.20706851203e-07
1.21966975838e-07
1.23244774369e-07
1.24542307251e-07
1.25841163604e-07
1.2717830367e-07
1.28494464464e-07
1.29863699325e-07
1.31198233903e-07
1.32598163547e-07
1.33975366305e-07
1.35404993347e-07
1.36818988819e-07
1.3832929752e-07
1.39718529275e-07
1.41181597012e-07
1.43502314334e-07
1.396345374e-07
1.32425470761e-07
1.26443460213e-07
1.25187047097e-07
1.25506621574e-07
1.26602437944e-07
1.27982971331e-07
1.29276155379e-07
1.30462638297e-07
1.31381412027e-07
1.32114067459e-07
1.32817906041e-07
1.33625081137e-07
1.34587693438e-07
1.35731383024e-07
1.37067745446e-07
1.38589238913e-07
1.40225438966e-07
1.41959648934e-07
1.43756636607e-07
9.22954714581e-08
9.32435411884e-08
9.42079724957e-08
9.51802288198e-08
9.61665659816e-08
9.71564052194e-08
9.81601763665e-08
9.91745945999e-08
1.00205014781e-07
1.01239326042e-07
1.02289335696e-07
1.03350879818e-07
1.04413786074e-07
1.05500797418e-07
1.06602924221e-07
1.07702649959e-07
1.08821889445e-07
1.09953874728e-07
1.11092513504e-07
1.12257108976e-07
1.13417757585e-07
1.14605511836e-07
1.15796256097e-07
1.170185794e-07
1.18227678565e-07
1.19465619598e-07
1.20706283708e-07
1.21966628767e-07
1.23244226546e-07
1.24542298657e-07
1.25841228461e-07
1.27178062085e-07
1.28493853845e-07
1.29863347188e-07
1.31197642482e-07
1.32598417414e-07
1.33975509663e-07
1.35405079059e-07
1.36820047612e-07
1.38331589033e-07
1.39716517419e-07
1.41196013085e-07
1.4351100121e-07
1.39845824962e-07
1.32749408961e-07
1.26801326397e-07
1.25493413004e-07
1.2576892668e-07
1.26801663709e-07
1.28105121794e-07
1.29308084553e-07
1.30299007371e-07
1.31078829103e-07
1.31732970673e-07
1.32425873981e-07
1.33255976088e-07
1.34259875786e-07
1.35452854868e-07
1.36841618035e-07
1.38403430651e-07
1.40077825498e-07
1.41838864641e-07
1.43661394031e-07
9.22951981093e-08
9.32426735856e-08
9.42073486919e-08
9.51797162478e-08
9.61661665364e-08
9.71560389292e-08
9.81598576749e-08
9.91739474547e-08
1.0020477333e-07
1.01238910941e-07
1.02289298744e-07
1.03350187484e-07
1.04413412977e-07
1.05500291049e-07
1.06602828075e-07
1.07702110857e-07
1.08821163979e-07
1.09953126354e-07
1.11091361508e-07
1.12256539946e-07
1.13416559448e-07
1.14605362656e-07
1.15796512698e-07
1.1701868414e-07
1.18227470285e-07
1.19464839429e-07
1.20706011461e-07
1.21966704289e-07
1.23243824873e-07
1.24542652054e-07
1.25841210996e-07
1.27178106138e-07
1.28493433532e-07
1.29862774856e-07
1.3119722944e-07
1.32598410553e-07
1.33975982271e-07
1.35405414129e-07
1.36820746197e-07
1.38333239905e-07
1.39714570079e-07
1.41213087761e-07
1.43518226137e-07
1.40047539771e-07
1.33078561921e-07
1.27181090602e-07
1.25821825557e-07
1.26049113817e-07
1.27005961434e-07
1.28210463598e-07
1.29310672798e-07
1.30071054195e-07
1.30748379579e-07
1.31365561887e-07
1.32064163265e-07
1.32918651231e-07
1.33960551959e-07
1.35201736567e-07
1.36644476092e-07
1.38241497627e-07
1.39948111674e-07
1.41734327294e-07
1.4357456656e-07
9.22946287702e-08
9.32422663453e-08
9.42069544085e-08
9.51792312762e-08
9.61653401646e-08
9.71555911299e-08
9.81595064911e-08
9.91733625558e-08
1.00204208924e-07
1.01238141662e-07
1.02288688658e-07
1.03350055121e-07
1.04413015504e-07
1.0549967367e-07
1.06603023225e-07
1.07701589318e-07
1.08820419646e-07
1.09952432511e-07
1.11090594591e-07
1.12256136864e-07
1.13415948245e-07
1.14605172319e-07
1.15796602369e-07
1.17018255754e-07
1.18227176645e-07
1.19464713447e-07
1.2070580196e-07
1.21966386046e-07
1.2324319184e-07
1.24542467948e-07
1.25841152369e-07
1.27177697866e-07
1.28493019067e-07
1.29862469759e-07
1.31197258657e-07
1.32598601175e-07
1.33976277758e-07
1.35406005402e-07
1.36821460734e-07
1.38333296322e-07
1.39713412802e-07
1.41233753213e-07
1.43523562879e-07
1.4023767646e-07
1.33411704066e-07
1.27581974413e-07
1.26172250193e-07
1.26344982644e-07
1.27213622468e-07
1.28251572678e-07
1.29279965124e-07
1.29843862275e-07
1.30411944124e-07
1.30999209534e-07
1.31715694661e-07
1.3260626048e-07
1.33694730054e-07
1.34989076503e-07
1.36471705743e-07
1.38097443951e-07
1.39830048533e-07
1.4163525836e-07
1.43491829412e-07
9.22948891257e-08
9.324132369e-08
9.42060338518e-08
9.51786160147e-08
9.61645720046e-08
9.7155198144e-08
9.81590652731e-08
9.91727179518e-08
1.00204166549e-07
1.01237945242e-07
1.02288367814e-07
1.0334906106e-07
1.04412355302e-07
1.05499436596e-07
1.06602396285e-07
1.07701019283e-07
1.08820515115e-07
1.09951964415e-07
1.11090234649e-07
1.12255668302e-07
1.13415476349e-07
1.14604726632e-07
1.15796138527e-07
1.17017749297e-07
1.18226756782e-07
1.19464288768e-07
1.2070528954e-07
1.2196614169e-07
1.23242873427e-07
1.24541734078e-07
1.25841327887e-07
1.27177632977e-07
1.2849295523e-07
1.29862234938e-07
1.31197085611e-07
1.32598221677e-07
1.33976737176e-07
1.35406701019e-07
1.36822297253e-07
1.38332836439e-07
1.39713071345e-07
1.41256790041e-07
1.43525135844e-07
1.40414497465e-07
1.33747558766e-07
1.28003854858e-07
1.26546956726e-07
1.2665442639e-07
1.27291435762e-07
1.28431798383e-07
1.29159298272e-07
1.2962690367e-07
1.3008366777e-07
1.30646867529e-07
1.31384015247e-07
1.32319734422e-07
1.33462794311e-07
1.34807712763e-07
1.36325735643e-07
1.37974624398e-07
1.39726505735e-07
1.41546941307e-07
1.43412681216e-07
9.229419664e-08
9.32413066362e-08
9.42057177368e-08
9.51782413325e-08
9.61642138983e-08
9.71546400353e-08
9.81585756169e-08
9.91722128216e-08
1.00203452947e-07
1.01237232963e-07
1.02287713327e-07
1.03348815222e-07
1.04412260878e-07
1.05498732829e-07
1.06602092538e-07
1.07700536298e-07
1.08819988388e-07
1.09951295493e-07
1.11089755021e-07
1.12255170009e-07
1.1341549323e-07
1.14604221957e-07
1.15795822292e-07
1.1701727605e-07
1.18226454207e-07
1.19463705124e-07
1.20704620279e-07
1.21965650402e-07
1.23242245519e-07
1.24542630088e-07
1.25841185733e-07
1.27177048225e-07
1.28492800173e-07
1.29862197762e-07
1.3119717317e-07
1.32597897015e-07
1.33976901157e-07
1.35406747032e-07
1.36823226064e-07
1.38330858495e-07
1.39714023709e-07
1.41280739962e-07
1.43521857296e-07
1.40576947962e-07
1.34084432728e-07
1.28445350379e-07
1.26943411165e-07
1.26976080129e-07
1.27562503052e-07
1.28425053665e-07
1.28984851847e-07
1.2937855741e-07
1.29776775025e-07
1.30314007367e-07
1.31071674489e-07
1.32055529296e-07
1.3324884835e-07
1.34638327708e-07
1.36189657884e-07
1.37860126502e-07
1.39634106638e-07
1.41470684425e-07
1.43347317788e-07
9.2294018099e-08
9.32405319447e-08
9.42051913613e-08
9.5177647705e-08
9.61641246904e-08
9.71537691448e-08
9.81579509394e-08
9.91713811134e-08
1.00202818609e-07
1.01236765602e-07
1.02287228893e-07
1.03348362168e-07
1.04411785472e-07
1.05498523693e-07
1.06601575047e-07
1.07700093152e-07
1.08819496211e-07
1.09950830228e-07
1.1108968459e-07
1.12254638022e-07
1.1341525175e-07
1.14603660986e-07
1.15795539993e-07
1.17016601911e-07
1.18226302261e-07
1.19463489738e-07
1.20703556723e-07
1.21965044875e-07
1.2324180221e-07
1.24542352387e-07
1.25841462363e-07
1.27177100401e-07
1.28492784068e-07
1.29861797413e-07
1.31197204094e-07
1.32597192374e-07
1.33977243428e-07
1.35406569641e-07
1.36824229251e-07
1.38328366395e-07
1.39716444694e-07
1.41307499051e-07
1.43514034246e-07
1.40724041947e-07
1.3442110579e-07
1.28905587584e-07
1.27363276657e-07
1.27311370984e-07
1.27807962797e-07
1.284049606e-07
1.28822698969e-07
1.29089730501e-07
1.29494057055e-07
1.29984228539e-07
1.30764589614e-07
1.31804245575e-07
1.33060116348e-07
1.34503939474e-07
1.36093873611e-07
1.37787219097e-07
1.39569319861e-07
1.41409552752e-07
1.43285515866e-07
9.22938370198e-08
9.32399080628e-08
9.42045432155e-08
9.51775212002e-08
9.6163964459e-08
9.71530552036e-08
9.81574326093e-08
9.91705459082e-08
1.00201898766e-07
1.01235871354e-07
1.02286798438e-07
1.03348145913e-07
1.04411460841e-07
1.05498069769e-07
1.06600971022e-07
1.07699396597e-07
1.08819376886e-07
1.09950362662e-07
1.11089421802e-07
1.12254463906e-07
1.13415439684e-07
1.14603238378e-07
1.15794623038e-07
1.17015771081e-07
1.18225780565e-07
1.1946261067e-07
1.20703207491e-07
1.21964843083e-07
1.23241401904e-07
1.24542410113e-07
1.25841406611e-07
1.27176788693e-07
1.28492986764e-07
1.29861341219e-07
1.31197994976e-07
1.32596895534e-07
1.3397774333e-07
1.35407174846e-07
1.36825134405e-07
1.38324571763e-07
1.39720269412e-07
1.41334937789e-07
1.43501629686e-07
1.40855150081e-07
1.3475720821e-07
1.29382744872e-07
1.27804461712e-07
1.27662108937e-07
1.27997534487e-07
1.28387680642e-07
1.28624569338e-07
1.28804720167e-07
1.29166577464e-07
1.29692010085e-07
1.3049905832e-07
1.31587477072e-07
1.32898988887e-07
1.3439193325e-07
1.36016871284e-07
1.37729952507e-07
1.39518372219e-07
1.41361217326e-07
1.43238031101e-07
9.22930556927e-08
9.32393325721e-08
9.42040950443e-08
9.5176882066e-08
9.6163157676e-08
9.71529976469e-08
9.815710722e-08
9.91701065244e-08
1.00201119975e-07
1.01235316279e-07
1.02286276418e-07
1.03347932774e-07
1.04411572232e-07
1.05497269569e-07
1.06600687391e-07
1.07698869747e-07
1.08818507726e-07
1.09949703264e-07
1.11089128624e-07
1.12253821385e-07
1.13415047444e-07
1.14602621767e-07
1.15794162211e-07
1.1701554104e-07
1.18225561918e-07
1.19461947138e-07
1.20702321781e-07
1.21964358325e-07
1.23240806613e-07
1.24542859513e-07
1.25841318667e-07
1.27175991209e-07
1.28493049235e-07
1.29861112979e-07
1.31198479355e-07
1.32596557226e-07
1.33977910252e-07
1.35406191655e-07
1.36826648384e-07
1.38320592115e-07
1.39725371311e-07
1.41364708366e-07
1.43482382622e-07
1.40967027621e-07
1.35088960759e-07
1.29874053665e-07
1.28261826468e-07
1.28023736775e-07
1.28174803416e-07
1.28360070576e-07
1.28436562788e-07
1.2852041728e-07
1.28857003488e-07
1.29429859913e-07
1.30251563471e-07
1.31389930879e-07
1.32756640885e-07
1.3429296286e-07
1.35945792634e-07
1.3767481522e-07
1.39465104808e-07
1.41310050128e-07
1.43185255431e-07
9.22926195133e-08
9.32389730352e-08
9.42038486113e-08
9.51762021392e-08
9.61628891747e-08
9.71526762643e-08
9.81567912104e-08
9.91691923463e-08
1.00200585493e-07
1.01234682785e-07
1.02285767011e-07
1.03347438738e-07
1.04411149425e-07
1.05497357646e-07
1.06600141656e-07
1.07698104699e-07
1.08818006296e-07
1.09949085968e-07
1.11088932829e-07
1.12253263846e-07
1.13414995947e-07
1.14602220712e-07
1.1579332995e-07
1.17014649605e-07
1.18224825484e-07
1.19461813725e-07
1.20701624927e-07
1.21964295642e-07
1.23240059564e-07
1.24542776517e-07
1.25841117537e-07
1.27175924239e-07
1.2849333871e-07
1.29860686207e-07
1.31198905224e-07
1.32595866182e-07
1.33978316239e-07
1.35406088174e-07
1.36827700273e-07
1.38315916731e-07
1.39731441067e-07
1.41393680012e-07
1.43457984594e-07
1.41060890058e-07
1.35417681605e-07
1.30379570156e-07
1.28739335442e-07
1.28393354056e-07
1.2833695115e-07
1.28331897096e-07
1.28202633739e-07
1.28228280604e-07
1.28566195476e-07
1.2921690965e-07
1.30038885458e-07
1.31219155478e-07
1.32639952854e-07
1.34218028143e-07
1.35895710688e-07
1.37636307657e-07
1.39430860429e-07
1.41276067881e-07
1.43148267075e-07
9.22920168881e-08
9.32387211594e-08
9.42034904701e-08
9.51757628261e-08
9.61622920956e-08
9.7152406933e-08
9.8156339724e-08
9.91688548913e-08
1.00199604531e-07
1.0123391342e-07
1.02285609644e-07
1.03347124489e-07
1.04410313206e-07
1.05496422556e-07
1.06599956926e-07
1.07697502004e-07
1.08817426602e-07
1.09948263863e-07
1.11088274985e-07
1.12252551162e-07
1.13415067251e-07
1.14601665429e-07
1.15792856478e-07
1.17014203945e-07
1.18224484877e-07
1.19461766003e-07
1.20701154599e-07
1.21963989318e-07
1.23238975441e-07
1.24543680208e-07
1.25840923277e-07
1.27175393619e-07
1.28493358818e-07
1.29860792063e-07
1.31199040211e-07
1.32595788051e-07
1.33978184428e-07
1.35404888177e-07
1.36828751385e-07
1.38310565317e-07
1.3973911157e-07
1.41423041859e-07
1.43427128128e-07
1.41135036764e-07
1.35740514332e-07
1.30894894674e-07
1.29237615554e-07
1.28758892997e-07
1.28515847613e-07
1.28333386717e-07
1.27966441703e-07
1.27942804052e-07
1.28293077248e-07
1.29003637926e-07
1.29847455277e-07
1.31070807369e-07
1.3254017027e-07
1.34155446668e-07
1.35858538284e-07
1.37612224133e-07
1.3941341429e-07
1.41258887192e-07
1.4312394556e-07
9.22918195544e-08
9.32379794066e-08
9.42030952403e-08
9.51752916028e-08
9.61623241988e-08
9.71515629049e-08
9.81559852461e-08
9.91682593286e-08
1.00198905409e-07
1.012331945e-07
1.02284875337e-07
1.03346603648e-07
1.04410599389e-07
1.05495899019e-07
1.06599388932e-07
1.0769689629e-07