/*--------------------------------*- C++ -*----------------------------------*\
  =========                 |
  \\      /  F ield         | OpenFOAM: The Open Source CFD Toolbox
   \\    /   O peration     | Website:  https://openfoam.org
    \\  /    A nd           | Version:  6
     \\/     M anipulation  |
\*---------------------------------------------------------------------------*/
FoamFile
{
    version     2.0;
    format      ascii;
    class       volScalarField;
    location    "0.0002";
    object      HO2;
}
// * * * * * * * * * * * * * * * * * * * * * * * * * * * * * * * * * * * * * //

dimensions      [0 0 0 0 0 0 0];

internalField   nonuniform List<scalar> 
208908
(
8.34045786266e-08
8.35097498523e-08
8.37301640696e-08
8.4019779725e-08
8.43483620028e-08
8.46999026217e-08
8.50666737261e-08
8.54443994009e-08
8.5831547579e-08
8.62268034734e-08
8.66297300568e-08
8.70397738899e-08
8.74570560089e-08
8.78812596033e-08
8.83127265755e-08
8.8751033197e-08
8.91964854545e-08
8.9648728841e-08
9.01079574813e-08
9.05740704384e-08
9.10472403524e-08
9.15273324792e-08
9.20141981626e-08
9.25085690973e-08
9.30082934514e-08
9.35173420785e-08
9.40314823168e-08
9.45525758556e-08
9.50798009908e-08
9.56148505006e-08
9.61567506232e-08
9.67058645694e-08
9.72597932009e-08
9.78216595154e-08
9.83910106852e-08
9.89661726937e-08
9.95475023411e-08
1.00138492018e-07
1.0073386881e-07
1.01335963597e-07
1.01943457546e-07
1.02559738974e-07
1.03181623204e-07
1.03810696792e-07
1.0444563215e-07
1.05088938004e-07
1.05738895893e-07
1.06392898509e-07
1.07052594006e-07
1.07719914724e-07
1.08397515214e-07
1.09079281608e-07
1.0976899166e-07
1.10456943819e-07
1.11160983938e-07
1.11865422101e-07
1.12585761361e-07
1.13301484691e-07
1.14037245123e-07
1.14755129384e-07
1.15515782613e-07
1.16253498238e-07
8.34042388969e-08
8.35094088207e-08
8.37298197033e-08
8.40194284377e-08
8.43480049575e-08
8.46995406538e-08
8.50663166864e-08
8.54440458195e-08
8.58311822115e-08
8.62264417104e-08
8.66293626287e-08
8.70394189616e-08
8.74566982662e-08
8.78809026716e-08
8.8312374348e-08
8.87506831908e-08
8.91961325806e-08
8.96483829826e-08
9.0107606689e-08
9.05737260994e-08
9.10468939352e-08
9.15269993042e-08
9.2013824068e-08
9.25082904029e-08
9.30082912292e-08
9.35169553739e-08
9.40306457941e-08
9.45521622348e-08
9.50795669902e-08
9.56147289996e-08
9.61554470202e-08
9.67055288553e-08
9.72596306515e-08
9.78219780479e-08
9.8390858172e-08
9.89657553451e-08
9.95473234213e-08
1.00137886327e-07
1.00733717703e-07
1.01335724267e-07
1.0194313117e-07
1.02559010881e-07
1.03181201331e-07
1.03810673706e-07
1.04445437713e-07
1.05088582985e-07
1.05739042064e-07
1.06392495175e-07
1.07052459364e-07
1.07719509687e-07
1.08397369186e-07
1.09078831745e-07
1.09768723352e-07
1.10456365503e-07
1.11160549148e-07
1.11864798846e-07
1.12584713165e-07
1.13301221374e-07
1.14037981565e-07
1.14754621614e-07
1.1551514984e-07
1.16252168226e-07
8.34039118434e-08
8.35090811073e-08
8.37294863805e-08
8.40190918413e-08
8.43476572602e-08
8.46991879333e-08
8.50659698301e-08
8.54436998828e-08
8.5830827324e-08
8.62260862738e-08
8.66290028348e-08
8.70390693749e-08
8.74563463532e-08
8.78805506983e-08
8.83120262053e-08
8.87503356917e-08
8.91957848902e-08
8.96480399858e-08
9.01072669524e-08
9.05733828738e-08
9.10465680678e-08
9.1526636858e-08
9.20135499817e-08
9.25078923672e-08
9.30075260686e-08
9.35166786754e-08
9.40302220132e-08
9.45518322144e-08
9.50795937719e-08
9.56141096521e-08
9.61555537854e-08
9.67050591903e-08
9.72594019623e-08
9.78212401894e-08
9.83903496336e-08
9.89654612126e-08
9.95469429434e-08
1.00137740305e-07
1.00734187608e-07
1.01335266168e-07
1.01941736131e-07
1.02558848359e-07
1.03181535012e-07
1.03810361438e-07
1.04444429912e-07
1.05088078367e-07
1.05738139283e-07
1.06392146347e-07
1.07053381273e-07
1.07719386136e-07
1.08396675791e-07
1.09078288413e-07
1.09768222411e-07
1.10456337944e-07
1.11160464976e-07
1.11864760072e-07
1.12584411046e-07
1.13300901071e-07
1.14036877513e-07
1.14754161628e-07
1.15515668918e-07
1.16252053212e-07
8.3403598972e-08
8.35087672786e-08
8.37291683991e-08
8.40187685165e-08
8.43473219221e-08
8.46988460241e-08
8.5065632801e-08
8.5443362264e-08
8.58304826536e-08
8.62257395286e-08
8.6628649103e-08
8.7038726255e-08
8.74560002345e-08
8.78802028534e-08
8.83116819969e-08
8.87499915867e-08
8.91954398246e-08
8.96477045576e-08
9.01069292659e-08
9.05730582266e-08
9.10462128201e-08
9.15263859061e-08
9.20130085766e-08
9.25078549487e-08
9.30084978318e-08
9.35162944287e-08
9.40291063053e-08
9.45509696582e-08
9.50795116685e-08
9.56140437786e-08
9.61546882875e-08
9.67044998342e-08
9.72589142286e-08
9.78210411513e-08
9.83905045454e-08
9.89653608609e-08
9.9546806093e-08
1.00136996825e-07
1.00732727608e-07
1.01334764629e-07
1.0194251974e-07
1.02558491025e-07
1.03180289741e-07
1.03809563577e-07
1.0444418573e-07
1.05088045969e-07
1.05738312184e-07
1.06392119122e-07
1.07051727333e-07
1.07719235476e-07
1.08396914826e-07
1.09078323336e-07
1.09768140867e-07
1.10455691356e-07
1.11159948621e-07
1.11864283076e-07
1.12584772085e-07
1.13300804207e-07
1.14036616614e-07
1.14754116534e-07
1.15513645892e-07
1.16252247338e-07
8.34033005262e-08
8.35084678371e-08
8.3728865505e-08
8.4018458428e-08
8.43470006795e-08
8.46985146867e-08
8.50653057991e-08
8.54430352764e-08
8.58301486459e-08
8.62253998426e-08
8.66283047579e-08
8.703838769e-08
8.74556588499e-08
8.78798608216e-08
8.83113397508e-08
8.87496503416e-08
8.91950993927e-08
8.96473727142e-08
9.01065988883e-08
9.05727269705e-08
9.10459041439e-08
9.15260104546e-08
9.20127868759e-08
9.25074127551e-08
9.30078576132e-08
9.35160147827e-08
9.40293374496e-08
9.45509009672e-08
9.50789389776e-08
9.56136003386e-08
9.61551376338e-08
9.67043532842e-08
9.72586233335e-08
9.78204955064e-08
9.83896968572e-08
9.89643055662e-08
9.95458384847e-08
1.00136718001e-07
1.00732769788e-07
1.01334585725e-07
1.01941605123e-07
1.02558261173e-07
1.03179940404e-07
1.0380930149e-07
1.04444005239e-07
1.05087704108e-07
1.0573819241e-07
1.06391593757e-07
1.07051874213e-07
1.07719101026e-07
1.08395520311e-07
1.09077698199e-07
1.09767482971e-07
1.10456051228e-07
1.11159955359e-07
1.11864005831e-07
1.12583810222e-07
1.13299547712e-07
1.14035956629e-07
1.14753884638e-07
1.15514929488e-07
1.16252005861e-07
8.34030149995e-08
8.3508181426e-08
8.37285749509e-08
8.40181631065e-08
8.43466886717e-08
8.46981974193e-08
8.50649853229e-08
8.54427206783e-08
8.58298200551e-08
8.62250699543e-08
8.66279649958e-08
8.70380551965e-08
8.74553204854e-08
8.78795214519e-08
8.83109996511e-08
8.87493106313e-08
8.91947619438e-08
8.96470433467e-08
9.01062718133e-08
9.05724010064e-08
9.10455885223e-08
9.15256581302e-08
9.20125353605e-08
9.25069704616e-08
9.30070648361e-08
9.35155998274e-08
9.40292713837e-08
9.45504656104e-08
9.50784777438e-08
9.56132035288e-08
9.61548751673e-08
9.67042297472e-08
9.7258350323e-08
9.78194351166e-08
9.83895400068e-08
9.89648387854e-08
9.95459337597e-08
1.00136423395e-07
1.00732191302e-07
1.01334035127e-07
1.01941950726e-07
1.02558170577e-07
1.03179601118e-07
1.03808591315e-07
1.04443962905e-07
1.05087499804e-07
1.05737542312e-07
1.06391051425e-07
1.0705115517e-07
1.07718609791e-07
1.08396005103e-07
1.0907747291e-07
1.09766863945e-07
1.10455385814e-07
1.11159036401e-07
1.11863851337e-07
1.12583050165e-07
1.13299972268e-07
1.14035433035e-07
1.14753544349e-07
1.15514296633e-07
1.16251270818e-07
8.34027407586e-08
8.35079054882e-08
8.3728297655e-08
8.40178766679e-08
8.43463909983e-08
8.46978885825e-08
8.50646772435e-08
8.54424109124e-08
8.5829500759e-08
8.62247459933e-08
8.66276302764e-08
8.70377267382e-08
8.74549853541e-08
8.78791834426e-08
8.83106617587e-08
8.87489714105e-08
8.91944258525e-08
8.96467172262e-08
9.01059428513e-08
9.05720814945e-08
9.10452636219e-08
9.15253152104e-08
9.20122604961e-08
9.25065598046e-08
9.30063855046e-08
9.35152601958e-08
9.40291950089e-08
9.45504572875e-08
9.50780990522e-08
9.56123823484e-08
9.61537388928e-08
9.67041137808e-08
9.72580671534e-08
9.7819810928e-08
9.8389235611e-08
9.89636940054e-08
9.9545290664e-08
1.00135831709e-07
1.00731810041e-07
1.01333512375e-07
1.01941722138e-07
1.02557586926e-07
1.03179679806e-07
1.03808540864e-07
1.04443435679e-07
1.05087008559e-07
1.0573727645e-07
1.06390840531e-07
1.07051468844e-07
1.07718308984e-07
1.08395101964e-07
1.09077041335e-07
1.09767356535e-07
1.10455130332e-07
1.11158686627e-07
1.11863381906e-07
1.12583385036e-07
1.13299372415e-07
1.14034895462e-07
1.14753377493e-07
1.15512737437e-07
1.16251020513e-07
8.3402475536e-08
8.35076391824e-08
8.37280273901e-08
8.40176021703e-08
8.43461013992e-08
8.46975918201e-08
8.50643764661e-08
8.54421070741e-08
8.582918816e-08
8.62244259438e-08
8.66273006725e-08
8.70374024873e-08
8.74546510122e-08
8.78788489821e-08
8.83103241171e-08
8.87486351843e-08
8.91940916677e-08
8.96463916813e-08
9.01056151637e-08
9.05717559854e-08
9.10449361176e-08
9.15249875956e-08
9.20118783348e-08
9.25063150838e-08
9.30062631836e-08
9.35150540821e-08
9.40287241322e-08
9.45501570884e-08
9.50775353923e-08
9.5612256202e-08
9.61539829888e-08
9.6703474588e-08
9.72574531817e-08
9.78194014803e-08
9.83887118542e-08
9.8963518484e-08
9.95451250846e-08
1.00135230006e-07
1.00731776266e-07
1.01333753807e-07
1.01940829969e-07
1.02556906551e-07
1.03178949091e-07
1.03808085148e-07
1.04443101029e-07
1.05086514347e-07
1.05736237559e-07
1.06390302239e-07
1.07050995024e-07
1.07717815881e-07
1.08395313521e-07
1.09076666018e-07
1.09767290551e-07
1.10454573358e-07
1.11158573307e-07
1.11863007438e-07
1.12582710304e-07
1.13298905951e-07
1.14036236761e-07
1.14752776768e-07
1.15512131418e-07
1.16250534473e-07
8.34022193479e-08
8.35073819457e-08
8.37277658617e-08
8.40173370666e-08
8.43458232024e-08
8.46973055003e-08
8.50640832799e-08
8.54418105633e-08
8.58288788141e-08
8.62241131744e-08
8.66269766646e-08
8.7037079182e-08
8.74543198705e-08
8.78785165336e-08
8.83099899026e-08
8.87483004462e-08
8.91937608904e-08
8.96460638997e-08
9.01052862971e-08
9.0571422211e-08
9.10446062507e-08
9.15246296519e-08
9.20115697836e-08
9.25058972174e-08
9.30057822032e-08
9.35144707068e-08
9.40281421803e-08
9.45496927175e-08
9.5077423503e-08
9.56120592124e-08
9.61534792295e-08
9.67030956519e-08
9.72573360685e-08
9.7818969121e-08
9.83884844021e-08
9.89635275727e-08
9.95446816895e-08
1.00135066585e-07
1.00730413832e-07
1.01333105306e-07
1.01941271266e-07
1.02557199948e-07
1.03178580439e-07
1.03807638049e-07
1.04442089872e-07
1.05086239813e-07
1.05736588888e-07
1.06389967e-07
1.07050710572e-07
1.07717660645e-07
1.08394662497e-07
1.09076107161e-07
1.09766575223e-07
1.10454527536e-07
1.11158250913e-07
1.11862691987e-07
1.12582697767e-07
1.13298696667e-07
1.14034141155e-07
1.14751990274e-07
1.15512718991e-07
1.16251016086e-07
8.34019706351e-08
8.35071324072e-08
8.3727510472e-08
8.40170809982e-08
8.43455540573e-08
8.46970280941e-08
8.50637972611e-08
8.5441518999e-08
8.58285771795e-08
8.62238044989e-08
8.6626659258e-08
8.70367604543e-08
8.74539912143e-08
8.78781873844e-08
8.8309659763e-08
8.8747971018e-08
8.91934291823e-08
8.96457375483e-08
9.01049451234e-08
9.05710947793e-08
9.10442417681e-08
9.15243218204e-08
9.20111160355e-08
9.25056900478e-08
9.30056498393e-08
9.35141456969e-08
9.40278361663e-08
9.45490182163e-08
9.50771360766e-08
9.56118499943e-08
9.61526821653e-08
9.67025429967e-08
9.72568479112e-08
9.78187801272e-08
9.83885090373e-08
9.89627159437e-08
9.95440253727e-08
1.00134503068e-07
1.00731114468e-07
1.01332830463e-07
1.01940577381e-07
1.02556642056e-07
1.03177822196e-07
1.03807046243e-07
1.04442181402e-07
1.05085891643e-07
1.05736094338e-07
1.06389776128e-07
1.07050072657e-07
1.07717195852e-07
1.08394275809e-07
1.09075965234e-07
1.09766668577e-07
1.10453954243e-07
1.11158100766e-07
1.1186207696e-07
1.12582172506e-07
1.13298426382e-07
1.14033771484e-07
1.14752060582e-07
1.15512497453e-07
1.16250342031e-07
8.34017311185e-08
8.3506891142e-08
8.37272659568e-08
8.40168324482e-08
8.43452966853e-08
8.46967601791e-08
8.50635200613e-08
8.54412379979e-08
8.58282842743e-08
8.62235055351e-08
8.66263489056e-08
8.70364487276e-08
8.74536673282e-08
8.78778677587e-08
8.83093353827e-08
8.87476456598e-08
8.91931017797e-08
8.96454055023e-08
9.01046042719e-08
9.05707485461e-08
9.10438994005e-08
9.15239382677e-08
9.20108082588e-08
9.25052350963e-08
9.30051501628e-08
9.35137695209e-08
9.4027416323e-08
9.4548787745e-08
9.50767059837e-08
9.56113601697e-08
9.61528721117e-08
9.67021054359e-08
9.7256601411e-08
9.78182583329e-08
9.83874604388e-08
9.89625386373e-08
9.95438135788e-08
1.00134141145e-07
1.00730117532e-07
1.01332477819e-07
1.01939823825e-07
1.02556168177e-07
1.03178696966e-07
1.03807234426e-07
1.04441288885e-07
1.05085089882e-07
1.05735325401e-07
1.06389272398e-07
1.07049235926e-07
1.07716498638e-07
1.08394430665e-07
1.09076079749e-07
1.09766121346e-07
1.10453691394e-07
1.11158016187e-07
1.11861810278e-07
1.12582173545e-07
1.13298151393e-07
1.14033753299e-07
1.14751547853e-07
1.15512717775e-07
1.16249301081e-07
8.34015014972e-08
8.35066603975e-08
8.37270291304e-08
8.40165956477e-08
8.43450475757e-08
8.46965031954e-08
8.50632531458e-08
8.54409692806e-08
8.58280038634e-08
8.62232206233e-08
8.66260465915e-08
8.70361477135e-08
8.7453355249e-08
8.78775599333e-08
8.83090197648e-08
8.87473259592e-08
8.91927786438e-08
8.96450696385e-08
9.01042633138e-08
9.05703989651e-08
9.10435523637e-08
9.15235753108e-08
9.20104298006e-08
9.25048699215e-08
9.3005209438e-08
9.35134415743e-08
9.40273624446e-08
9.45484593357e-08
9.50760138946e-08
9.56108820208e-08
9.61522160578e-08
9.67019359073e-08
9.72562504443e-08
9.78176307977e-08
9.83870623431e-08
9.89623167608e-08
9.95435693872e-08
1.0013369277e-07
1.00729969392e-07
1.01332117232e-07
1.01939199709e-07
1.0255548018e-07
1.03178108438e-07
1.0380684318e-07
1.04441104207e-07
1.05085034836e-07
1.05736324934e-07
1.06388991008e-07
1.07049163703e-07
1.07716296043e-07
1.08393755542e-07
1.09075254708e-07
1.09765611647e-07
1.10453615719e-07
1.11157161684e-07
1.11861582684e-07
1.1258158254e-07
1.13297399518e-07
1.14033574813e-07
1.14750954755e-07
1.1551191476e-07
1.16250122028e-07
8.34012844394e-08
8.3506442111e-08
8.37268040317e-08
8.40163717039e-08
8.4344810017e-08
8.46962585282e-08
8.50630007997e-08
8.54407182674e-08
8.58277420037e-08
8.6222948365e-08
8.66257609766e-08
8.70358609856e-08
8.74530578993e-08
8.78772689826e-08
8.83087149975e-08
8.87470176018e-08
8.91924573058e-08
8.96447389643e-08
9.01039213841e-08
9.05700607519e-08
9.10432125163e-08
9.15231865892e-08
9.20101610513e-08
9.25043482032e-08
9.30041611079e-08
9.35130647568e-08
9.40271178125e-08
9.45484668013e-08
9.50752862315e-08
9.56106976807e-08
9.61523744117e-08
9.67018801017e-08
9.72556352221e-08
9.78172948009e-08
9.83868790314e-08
9.89617791148e-08
9.95435089428e-08
1.00133742455e-07
1.00729009404e-07
1.01331369659e-07
1.01939132058e-07
1.02555815386e-07
1.03177563872e-07
1.03806178337e-07
1.04440637343e-07
1.05084749981e-07
1.0573501452e-07
1.06388666421e-07
1.07048610287e-07
1.0771622378e-07
1.08393446122e-07
1.090749687e-07
1.09765122846e-07
1.10452722009e-07
1.11157072341e-07
1.11861124956e-07
1.12581370849e-07
1.13297384395e-07
1.14033626629e-07
1.14750817162e-07
1.15510774363e-07
1.16249753486e-07
8.34010824673e-08
8.35062384331e-08
8.37265939379e-08
8.40161628971e-08
8.43445861427e-08
8.46960316929e-08
8.50627629554e-08
8.54404900816e-08
8.58274974157e-08
8.62226976087e-08
8.6625491989e-08
8.70355934232e-08
8.74527793545e-08
8.78769973885e-08
8.83084223666e-08
8.87467215201e-08
8.91921416131e-08
8.96444174906e-08
9.0103588695e-08
9.05697414427e-08
9.1042852992e-08
9.15229160882e-08
9.20095987135e-08
9.25042953363e-08
9.30046683644e-08
9.35128990788e-08
9.40260697967e-08
9.45474842284e-08
9.5075492292e-08
9.56105552881e-08
9.615178661e-08
9.67008756342e-08
9.72553412208e-08
9.78173031121e-08
9.83864940007e-08
9.89610891362e-08
9.95431381331e-08
1.00133157585e-07
1.00729694276e-07
1.01331376669e-07
1.01938899024e-07
1.02554840351e-07
1.03177004992e-07
1.03806165272e-07
1.04440461488e-07
1.05084071207e-07
1.05734903296e-07
1.06388268673e-07
1.07047791646e-07
1.07715664195e-07
1.08393276609e-07
1.09074719824e-07
1.09764506596e-07
1.10452553186e-07
1.11157003366e-07
1.11860712485e-07
1.12581129042e-07
1.13297198714e-07
1.14032442352e-07
1.14750738199e-07
1.15511568723e-07
1.16249069996e-07
8.34008971879e-08
8.35060516245e-08
8.37264009587e-08
8.40159691243e-08
8.43443827049e-08
8.46958194315e-08
8.50625454596e-08
8.54402825909e-08
8.58272768351e-08
8.62224663998e-08
8.66252437097e-08
8.70353466017e-08
8.74525200613e-08
8.78767453829e-08
8.83081466024e-08
8.87464395845e-08
8.91918391971e-08
8.96441092494e-08
9.01032750648e-08
9.05694297025e-08
9.10425411297e-08
9.15225489604e-08
9.20093585624e-08
9.25038360311e-08
9.30037515696e-08
9.35124793766e-08
9.40262381383e-08
9.45476818958e-08
9.50753857258e-08
9.56093734366e-08
9.61507774342e-08
9.67006833746e-08
9.72551770329e-08
9.78168796037e-08
9.83863407464e-08
9.89610416964e-08
9.9542530074e-08
1.00132968183e-07
1.00729438904e-07
1.0133096628e-07
1.01938166511e-07
1.02554285163e-07
1.03176054046e-07
1.03805778858e-07
1.04440877531e-07
1.05083964441e-07
1.05734360812e-07
1.0638786851e-07
1.07048321424e-07
1.07714974708e-07
1.08392299167e-07
1.09074363179e-07
1.09765043688e-07
1.10452432973e-07
1.11156903729e-07
1.11860159816e-07
1.12580437555e-07
1.13296674121e-07
1.14032471324e-07
1.14750834782e-07
1.15510600299e-07
1.16249571518e-07
1.16996506443e-07
1.17751845758e-07
1.18526829664e-07
1.19300360058e-07
1.20080008474e-07
1.20860192866e-07
1.21652806822e-07
1.22448997719e-07
1.23258702772e-07
1.24071616415e-07
1.24884353898e-07
1.25721958362e-07
1.26535671205e-07
1.27372475369e-07
1.28214635745e-07
1.29067518203e-07
1.29910997596e-07
1.30789996998e-07
1.31638549266e-07
1.3253029576e-07
1.33391144094e-07
1.34282910737e-07
1.35165887102e-07
1.3607449043e-07
1.369789813e-07
1.37884247872e-07
1.38810591802e-07
1.39725394011e-07
1.40654955815e-07
1.41598652144e-07
1.42525592986e-07
1.4348730875e-07
1.44430223985e-07
1.45402102889e-07
1.4636434709e-07
1.47330208189e-07
1.48344723495e-07
1.49294365244e-07
1.50353426627e-07
1.5128618551e-07
1.52376927329e-07
1.53237238413e-07
1.54811890668e-07
1.55036139629e-07
1.54477355513e-07
1.52754250478e-07
1.51694019758e-07
1.50956089084e-07
1.50541900456e-07
1.50403590039e-07
1.50444599375e-07
1.50600708799e-07
1.50857350227e-07
1.51194420506e-07
1.51555652077e-07
1.51988252058e-07
1.52476079865e-07
1.53018258663e-07
1.53629313815e-07
1.54340473344e-07
1.55123985128e-07
1.56003061077e-07
1.56947936408e-07
1.16995779348e-07
1.17751201014e-07
1.18526715794e-07
1.19300190671e-07
1.20079779138e-07
1.20859420613e-07
1.21652986288e-07
1.2244907422e-07
1.23258316441e-07
1.24070982001e-07
1.24884549134e-07
1.25722148496e-07
1.26535135435e-07
1.27373382347e-07
1.28214512522e-07
1.29067504779e-07
1.29910953698e-07
1.30789741424e-07
1.31638017761e-07
1.32530183599e-07
1.33389907083e-07
1.34282520603e-07
1.35165474668e-07
1.36074325705e-07
1.36978360614e-07
1.37883936083e-07
1.38810266975e-07
1.39725590776e-07
1.4065471329e-07
1.41598874422e-07
1.42525846513e-07
1.43487573261e-07
1.4442973237e-07
1.45401980802e-07
1.46364136665e-07
1.47330899032e-07
1.48344811888e-07
1.49295053227e-07
1.50353609301e-07
1.51286470496e-07
1.52382212283e-07
1.5324056179e-07
1.54813299165e-07
1.55069674085e-07
1.54537695309e-07
1.52867205034e-07
1.51825208969e-07
1.5109650581e-07
1.50680574769e-07
1.50530703497e-07
1.50557124141e-07
1.50675242843e-07
1.50886373536e-07
1.51171110007e-07
1.51483226824e-07
1.51876608064e-07
1.52341213298e-07
1.52872678205e-07
1.53486152827e-07
1.54199665276e-07
1.54991203193e-07
1.55877662613e-07
1.56832599811e-07
1.16995633506e-07
1.1775108833e-07
1.18525605239e-07
1.19299194408e-07
1.20079632165e-07
1.20859143336e-07
1.2165307031e-07
1.22448802054e-07
1.23258116521e-07
1.24071594232e-07
1.24884154568e-07
1.25720781453e-07
1.26534421363e-07
1.2737356833e-07
1.2821486085e-07
1.29067658359e-07
1.29910763148e-07
1.3078949018e-07
1.31637119332e-07
1.32529769608e-07
1.33388679371e-07
1.34282001135e-07
1.35165358839e-07
1.36074233174e-07
1.36977910793e-07
1.37883228954e-07
1.38810103459e-07
1.39726029727e-07
1.40654222154e-07
1.41599005429e-07
1.42525700306e-07
1.43487857452e-07
1.44429507676e-07
1.45402019936e-07
1.4636418357e-07
1.47331518833e-07
1.48344707512e-07
1.49295875716e-07
1.50353279713e-07
1.51287165368e-07
1.52387613876e-07
1.53243741774e-07
1.54814805464e-07
1.55101817396e-07
1.54597604509e-07
1.52983851402e-07
1.51962335347e-07
1.51243979665e-07
1.50825210083e-07
1.50659387419e-07
1.50668224803e-07
1.50743178322e-07
1.50896475575e-07
1.51129539602e-07
1.5141417248e-07
1.51779549957e-07
1.52217946058e-07
1.52732964336e-07
1.53348721373e-07
1.54065470804e-07
1.54865808098e-07
1.55763825253e-07
1.56725588028e-07
1.16995265153e-07
1.17750508174e-07
1.18525729361e-07
1.19299128723e-07
1.20078958215e-07
1.20858302605e-07
1.21653075096e-07
1.22448465779e-07
1.23258309047e-07
1.24069960695e-07
1.24884108083e-07
1.25721973152e-07
1.26534706073e-07
1.27372855345e-07
1.28214714739e-07
1.29067319336e-07
1.29910201011e-07
1.30788895509e-07
1.31636582794e-07
1.32529349864e-07
1.33387878514e-07
1.34281216449e-07
1.35165024155e-07
1.36074021545e-07
1.36977396223e-07
1.37882933868e-07
1.38810002714e-07
1.39726540025e-07
1.4065369132e-07
1.41599032774e-07
1.4252575881e-07
1.43487964373e-07
1.44429205839e-07
1.45402209629e-07
1.46364162686e-07
1.47332285988e-07
1.48344037582e-07
1.49296600494e-07
1.50353005079e-07
1.51287704238e-07
1.52393069801e-07
1.53247802686e-07
1.5481665253e-07
1.5513216815e-07
1.54656402987e-07
1.53103224494e-07
1.52104523971e-07
1.51397484177e-07
1.50975094756e-07
1.50786210354e-07
1.50766003163e-07
1.50802830089e-07
1.50906929001e-07
1.5108387394e-07
1.51333972121e-07
1.51671919625e-07
1.52095608905e-07
1.52610944046e-07
1.53228650398e-07
1.53948029224e-07
1.54754698044e-07
1.55657198492e-07
1.56625511755e-07
1.1699535456e-07
1.17750607612e-07
1.1852496888e-07
1.19298627062e-07
1.20078739439e-07
1.20858040404e-07
1.21652453401e-07
1.2244770403e-07
1.23257611088e-07
1.24071087336e-07
1.2488365138e-07
1.25720017085e-07
1.26533472519e-07
1.27372948451e-07
1.28214774361e-07
1.29067133268e-07
1.29910626627e-07
1.30788615577e-07
1.31636255776e-07
1.32528979384e-07
1.33387449014e-07
1.34281202103e-07
1.35164869072e-07
1.36073842668e-07
1.3697712903e-07
1.37882817957e-07
1.38809538316e-07
1.39726485424e-07
1.40653502638e-07
1.41597952929e-07
1.42525876001e-07
1.4348836069e-07
1.44429220626e-07
1.45402445362e-07
1.46363740019e-07
1.47332575491e-07
1.48343403277e-07
1.4929743208e-07
1.50352615633e-07
1.5128839258e-07
1.5239760312e-07
1.53252082894e-07
1.54818226144e-07
1.55160360605e-07
1.54713853654e-07
1.53225209263e-07
1.52252057062e-07
1.51556568255e-07
1.51158979096e-07
1.50904397895e-07
1.50842959349e-07
1.50851049953e-07
1.50909403011e-07
1.51040265259e-07
1.51255906408e-07
1.51565044649e-07
1.51976612837e-07
1.52493518448e-07
1.53115779448e-07
1.53840192028e-07
1.54653575723e-07
1.55562333245e-07
1.56532699101e-07
1.16995075478e-07
1.17749736402e-07
1.18524934035e-07
1.19298109511e-07
1.20078373046e-07
1.20857497548e-07
1.21652014863e-07
1.22447458745e-07
1.23257419462e-07
1.24069924631e-07
1.24883338739e-07
1.25720680557e-07
1.26533991847e-07
1.2737239482e-07
1.28214389644e-07
1.29066756342e-07
1.29910245593e-07
1.30788082024e-07
1.31636010018e-07
1.32528368866e-07
1.3338732792e-07
1.34280893843e-07
1.35164656457e-07
1.3607353402e-07
1.36977064344e-07
1.3788269018e-07
1.38808719198e-07
1.39726433987e-07
1.40652464256e-07
1.41599081389e-07
1.42525819805e-07
1.43488011026e-07
1.44428732413e-07
1.45402642809e-07
1.4636318142e-07
1.47332896426e-07
1.48342544527e-07
1.49297960456e-07
1.5035225139e-07
1.51288876572e-07
1.52401465156e-07
1.5325706255e-07
1.54819191464e-07
1.55186141012e-07
1.54769736467e-07
1.53349505514e-07
1.52404312124e-07
1.51720391338e-07
1.51303946514e-07
1.51038158405e-07
1.50924098998e-07
1.50887271419e-07
1.5091108506e-07
1.5100122172e-07
1.51183683807e-07
1.51471745854e-07
1.51871501328e-07
1.52385436821e-07
1.53010665832e-07
1.53740250771e-07
1.54560743018e-07
1.55476245272e-07
1.56450232477e-07
1.16994851907e-07
1.17749726324e-07
1.18525350274e-07
1.19298165707e-07
1.20078246321e-07
1.2085742499e-07
1.21651471198e-07
1.22446411286e-07
1.23256819741e-07
1.2406932176e-07
1.24882899407e-07
1.25720184024e-07
1.26533328583e-07
1.27372407441e-07
1.28214035385e-07
1.29066485146e-07
1.29910020347e-07
1.30787584773e-07
1.31635876315e-07
1.32527923222e-07
1.33387148555e-07
1.34280904164e-07
1.35164648008e-07
1.36073148419e-07
1.36976857309e-07
1.37882600538e-07
1.38807374486e-07
1.39726203728e-07
1.40652192419e-07
1.41598854652e-07
1.42526024876e-07
1.43488386611e-07
1.44428623304e-07
1.45402726538e-07
1.46362635969e-07
1.4733281936e-07
1.48341848732e-07
1.4929880977e-07
1.50351031951e-07
1.51289535972e-07
1.52404636814e-07
1.53262736222e-07
1.54819909589e-07
1.55209583295e-07
1.54823932079e-07
1.53475889125e-07
1.52561205443e-07
1.51889052246e-07
1.514411076e-07
1.51174322623e-07
1.51011761172e-07
1.50917967359e-07
1.50914161627e-07
1.50966174273e-07
1.51115399716e-07
1.51382464213e-07
1.51772533083e-07
1.52285142683e-07
1.52914314112e-07
1.53650155557e-07
1.54477399883e-07
1.55399155184e-07
1.56373599118e-07
1.16994590327e-07
1.17749546395e-07
1.18523684113e-07
1.19297924152e-07
1.20078499766e-07
1.20856827409e-07
1.21652093272e-07
1.22446144094e-07
1.23256502494e-07
1.24067705978e-07
1.24882143614e-07
1.25720446596e-07
1.26533387951e-07
1.27372204371e-07
1.28213592708e-07
1.29065670693e-07
1.29909854712e-07
1.30787089651e-07
1.31635606009e-07
1.32527773903e-07
1.33387394609e-07
1.34280987486e-07
1.35164058947e-07
1.36072612746e-07
1.3697667323e-07
1.37882380337e-07
1.38806740137e-07
1.39726693916e-07
1.4065075641e-07
1.41598870662e-07
1.42525681714e-07
1.43488218921e-07
1.44428213503e-07
1.45402659952e-07
1.46362171906e-07
1.47333101609e-07
1.48340643524e-07
1.49299919621e-07
1.50349589202e-07
1.51289824128e-07
1.52407330346e-07
1.53268842238e-07
1.54821184941e-07
1.55230781395e-07
1.54876101753e-07
1.53603009011e-07
1.52721031993e-07
1.52061327126e-07
1.51599873902e-07
1.51289830098e-07
1.51090948747e-07
1.50931118459e-07
1.50889508272e-07
1.50924787198e-07
1.51053167032e-07
1.51304688988e-07
1.51687826932e-07
1.52200569139e-07
1.52833644731e-07
1.53574388688e-07
1.54406949462e-07
1.5533270544e-07
1.5631100418e-07
1.16993923324e-07
1.17748975472e-07
1.18523466931e-07
1.19297170072e-07
1.20077846126e-07
1.20856238122e-07
1.21651396362e-07
1.22445707027e-07
1.23256139835e-07
1.24066727914e-07
1.24882201388e-07
1.25720818926e-07
1.26533815258e-07
1.27371684161e-07
1.28213442461e-07
1.29065552541e-07
1.29909341744e-07
1.30786536581e-07
1.31635620991e-07
1.32527351402e-07
1.3338714614e-07
1.34280583464e-07
1.35163863247e-07
1.36072519291e-07
1.36976841084e-07
1.37882384244e-07
1.38805432444e-07
1.39726258111e-07
1.40649546074e-07
1.41599701583e-07
1.42525632361e-07
1.43487964136e-07
1.44427833714e-07
1.45402976614e-07
1.46361433539e-07
1.4733346817e-07
1.48339364002e-07
1.49300357093e-07
1.50347819774e-07
1.51290379934e-07
1.52409331525e-07
1.53276024483e-07
1.54820914589e-07
1.55248164366e-07
1.54925073004e-07
1.53730397686e-07
1.52883313734e-07
1.52237404558e-07
1.51760233467e-07
1.51443614118e-07
1.5116029571e-07
1.50947458863e-07
1.50856886122e-07
1.50875786415e-07
1.50987010789e-07
1.51228124574e-07
1.51607301476e-07
1.52121345774e-07
1.52759471886e-07
1.53507028773e-07
1.5434530531e-07
1.5527616488e-07
1.56255481194e-07
1.16993481384e-07
1.1774868287e-07
1.18523022546e-07
1.19296569105e-07
1.20077612608e-07
1.20856109739e-07
1.21651655169e-07
1.22445334495e-07
1.23255875486e-07
1.24066008961e-07
1.24881801683e-07
1.25719906687e-07
1.26532963781e-07
1.27371769475e-07
1.28213150605e-07
1.29065006069e-07
1.29909181158e-07
1.30786050016e-07
1.31635732184e-07
1.32527112951e-07
1.33387391931e-07
1.34280787929e-07
1.35163412593e-07
1.36072140644e-07
1.36976278366e-07
1.37882300626e-07
1.38804806916e-07
1.3972756094e-07
1.40648739901e-07
1.41599350774e-07
1.42524786352e-07
1.43487930121e-07
1.44427767961e-07
1.45402834058e-07
1.4636079928e-07
1.47333294484e-07
1.4833814092e-07
1.49301486351e-07
1.50345110491e-07
1.51290619534e-07
1.52410105699e-07
1.53282498704e-07
1.5482058297e-07
1.55262862136e-07
1.54971620921e-07
1.53857941507e-07
1.53048153014e-07
1.52415586693e-07
1.51943120126e-07
1.51509038293e-07
1.51204641396e-07
1.50969867086e-07
1.50846687339e-07
1.5085261735e-07
1.50942744584e-07
1.51167284893e-07
1.51539358426e-07
1.52053394951e-07
1.52695065408e-07
1.53447211243e-07
1.54290729526e-07
1.55226118575e-07
1.56209525608e-07
1.16993065742e-07
1.17748388815e-07
1.18522791562e-07
1.19296105184e-07
1.20077271678e-07
1.20855837456e-07
1.21650719216e-07
1.2244515628e-07
1.23255669077e-07
1.2406482059e-07
1.24881696548e-07
1.25720371843e-07
1.26533230301e-07
1.27371346131e-07
1.28213272578e-07
1.29064758588e-07
1.29908937504e-07
1.30785195677e-07
1.3163541557e-07
1.32526223474e-07
1.33387669131e-07
1.34280405741e-07
1.35163254866e-07
1.36071827253e-07
1.36976272293e-07
1.37882436961e-07
1.38804221224e-07
1.39726960211e-07
1.40647101256e-07
1.41600636884e-07
1.4252478624e-07
1.43487566707e-07
1.44427378756e-07
1.45402956499e-07
1.46360038355e-07
1.4733338001e-07
1.48336583193e-07
1.49301758023e-07
1.50342338019e-07
1.51290816112e-07
1.52410235076e-07
1.53290072408e-07
1.54819004454e-07
1.55273714783e-07
1.5501465391e-07
1.53984441376e-07
1.53215214781e-07
1.52594210198e-07
1.52081313541e-07
1.51677915799e-07
1.51257320395e-07
1.50980733957e-07
1.50825336404e-07
1.50813015057e-07
1.50889949631e-07
1.51105083612e-07
1.51475091353e-07
1.51992142568e-07
1.52639439422e-07
1.53398164706e-07
1.54248382465e-07
1.55188453328e-07
1.56175577562e-07
1.16992929923e-07
1.17747918023e-07
1.18522633126e-07
1.19295984408e-07
1.20076785014e-07
1.2085576165e-07
1.21650626693e-07
1.22444550295e-07
1.23254900346e-07
1.24063503614e-07
1.24881211195e-07
1.25719618617e-07
1.26533209747e-07