/*--------------------------------*- C++ -*----------------------------------*\
  =========                 |
  \\      /  F ield         | OpenFOAM: The Open Source CFD Toolbox
   \\    /   O peration     | Website:  https://openfoam.org
    \\  /    A nd           | Version:  6
     \\/     M anipulation  |
\*---------------------------------------------------------------------------*/
FoamFile
{
    version     2.0;
    format      ascii;
    class       volScalarField;
    location    "0.0002";
    object      O;
}
// * * * * * * * * * * * * * * * * * * * * * * * * * * * * * * * * * * * * * //

dimensions      [0 0 0 0 0 0 0];

internalField   nonuniform List<scalar> 
208908
(
1.01147847945e-05
1.01476868258e-05
1.01851435504e-05
1.02219497906e-05
1.02580954947e-05
1.02938892907e-05
1.03295178429e-05
1.03650307525e-05
1.0400486737e-05
1.04359071644e-05
1.04712784765e-05
1.05066003093e-05
1.0541897081e-05
1.05771396969e-05
1.06123769714e-05
1.06475713628e-05
1.06827411667e-05
1.07178810333e-05
1.07529777778e-05
1.07880641338e-05
1.08231370252e-05
1.08581699419e-05
1.08931973351e-05
1.0928195228e-05
1.0963146674e-05
1.09981879883e-05
1.10330666051e-05
1.10679717199e-05
1.11028849655e-05
1.11377892956e-05
1.11726769138e-05
1.12075739787e-05
1.12423650941e-05
1.12771832854e-05
1.13120591892e-05
1.13468845878e-05
1.13816740478e-05
1.1416568031e-05
1.14512761798e-05
1.14861531582e-05
1.15208232867e-05
1.15556618096e-05
1.15904089041e-05
1.16252519737e-05
1.16599288206e-05
1.16948952355e-05
1.17295009671e-05
1.17644041085e-05
1.17989970821e-05
1.18338307971e-05
1.18685799437e-05
1.19036766018e-05
1.19381885766e-05
1.19729392809e-05
1.20078790656e-05
1.20427018723e-05
1.20774485845e-05
1.21124322278e-05
1.21473944842e-05
1.21820421065e-05
1.22170096757e-05
1.22517653272e-05
1.01147534627e-05
1.01476556431e-05
1.01851119227e-05
1.02219186711e-05
1.02580635338e-05
1.02938579932e-05
1.03294884915e-05
1.0365000553e-05
1.04004568363e-05
1.04358771107e-05
1.04712496892e-05
1.05065720228e-05
1.0541869133e-05
1.05771111815e-05
1.06123502507e-05
1.06475439059e-05
1.0682714572e-05
1.0717854529e-05
1.07529513771e-05
1.07880395126e-05
1.08231124568e-05
1.0858143981e-05
1.08931723383e-05
1.09281776463e-05
1.09631296094e-05
1.0998158169e-05
1.10330330899e-05
1.10679354997e-05
1.11028662142e-05
1.11377708586e-05
1.11726391853e-05
1.12075567744e-05
1.12423390689e-05
1.12771692309e-05
1.13120421134e-05
1.13468602325e-05
1.13816539323e-05
1.1416535751e-05
1.14512393445e-05
1.14861123049e-05
1.15208155728e-05
1.15556532194e-05
1.1590388602e-05
1.1625255583e-05
1.16599007169e-05
1.16948654493e-05
1.17294775137e-05
1.17643830522e-05
1.17989700029e-05
1.18338089309e-05
1.18685565989e-05
1.19036569606e-05
1.19381744576e-05
1.19729144415e-05
1.20078633324e-05
1.20426421432e-05
1.20774081022e-05
1.21124245585e-05
1.21473693602e-05
1.21820259165e-05
1.22170053918e-05
1.22517456289e-05
1.01147242418e-05
1.01476264594e-05
1.01850825905e-05
1.02218891646e-05
1.02580335278e-05
1.02938284636e-05
1.03294601982e-05
1.03649725608e-05
1.04004280856e-05
1.04358494927e-05
1.04712216844e-05
1.05065458087e-05
1.0541842769e-05
1.05770844762e-05
1.06123245796e-05
1.06475187602e-05
1.06826885947e-05
1.07178307264e-05
1.0752927254e-05
1.07880159917e-05
1.08230892542e-05
1.08581204087e-05
1.0893151983e-05
1.09281505363e-05
1.09630965219e-05
1.09981336538e-05
1.10330124267e-05
1.10679236226e-05
1.11028544301e-05
1.11377476538e-05
1.11726156942e-05
1.12075114538e-05
1.12423313564e-05
1.12771449561e-05
1.13120159486e-05
1.13468380318e-05
1.13816266877e-05
1.14165308398e-05
1.14512326309e-05
1.14860792439e-05
1.15207654852e-05
1.15556367517e-05
1.15903708356e-05
1.16252206928e-05
1.16598787359e-05
1.16948453038e-05
1.17294538832e-05
1.1764365078e-05
1.17989656118e-05
1.18337935718e-05
1.18685319665e-05
1.1903631392e-05
1.19381373483e-05
1.19729039005e-05
1.20078375672e-05
1.20426369984e-05
1.20773997767e-05
1.21123976967e-05
1.21473603298e-05
1.21820098144e-05
1.22169780563e-05
1.22517062877e-05
1.01146973755e-05
1.0147599658e-05
1.01850554722e-05
1.02218619419e-05
1.02580053299e-05
1.02938007877e-05
1.03294333509e-05
1.03649467246e-05
1.0400400867e-05
1.04358233648e-05
1.04711958026e-05
1.05065208022e-05
1.05418175296e-05
1.05770606671e-05
1.0612299293e-05
1.06474947947e-05
1.06826660423e-05
1.0717807066e-05
1.0752905442e-05
1.07879946031e-05
1.08230663765e-05
1.0858101578e-05
1.08931228333e-05
1.09281513667e-05
1.09631003978e-05
1.09980988035e-05
1.10329640968e-05
1.10678788359e-05
1.11028267116e-05
1.11377297685e-05
1.1172591042e-05
1.1207494351e-05
1.12422995916e-05
1.12771203827e-05
1.13120300854e-05
1.13468012487e-05
1.13816067325e-05
1.1416484934e-05
1.14511907483e-05
1.14860728415e-05
1.15207616002e-05
1.15556024287e-05
1.15903502031e-05
1.16251986449e-05
1.16598624129e-05
1.16948440707e-05
1.17294495659e-05
1.17643609893e-05
1.1798932927e-05
1.18337866742e-05
1.18685089934e-05
1.19035987485e-05
1.19381296033e-05
1.19728778019e-05
1.2007818354e-05
1.20426208226e-05
1.20773888683e-05
1.21124035714e-05
1.21472963302e-05
1.21819656836e-05
1.22169472421e-05
1.22516943698e-05
1.01146729454e-05
1.01475752397e-05
1.0185030669e-05
1.02218370577e-05
1.02579788084e-05
1.02937752667e-05
1.03294082263e-05
1.0364922455e-05
1.04003750628e-05
1.04357997998e-05
1.04711698738e-05
1.05064982268e-05
1.05417938919e-05
1.05770366982e-05
1.06122766889e-05
1.06474730309e-05
1.06826420092e-05
1.07177881541e-05
1.07528832055e-05
1.07879742077e-05
1.08230475005e-05
1.08580783833e-05
1.08931061791e-05
1.09281237868e-05
1.09630726517e-05
1.09980938662e-05
1.10329461639e-05
1.10678536935e-05
1.11028013124e-05
1.11377280362e-05
1.11725655483e-05
1.12074732234e-05
1.12422654862e-05
1.12770910187e-05
1.13119806955e-05
1.13467881204e-05
1.1381575956e-05
1.14164535927e-05
1.14511832454e-05
1.14860442705e-05
1.15207474552e-05
1.1555611786e-05
1.15903150414e-05
1.16251494978e-05
1.16598362109e-05
1.16948267232e-05
1.17294268113e-05
1.17643281771e-05
1.17989186915e-05
1.18337637446e-05
1.1868497496e-05
1.19036020642e-05
1.19380931918e-05
1.19728589344e-05
1.20077965669e-05
1.20425650709e-05
1.20773832003e-05
1.21123452959e-05
1.21473324887e-05
1.21819722692e-05
1.22169380328e-05
1.22516717916e-05
1.01146506759e-05
1.01475529475e-05
1.01850080539e-05
1.02218139141e-05
1.02579546837e-05
1.0293750696e-05
1.03293856619e-05
1.03648982479e-05
1.04003521687e-05
1.04357759225e-05
1.04711464928e-05
1.05064755973e-05
1.05417717376e-05
1.05770142223e-05
1.0612255129e-05
1.06474507923e-05
1.06826218337e-05
1.07177681567e-05
1.07528634371e-05
1.07879541299e-05
1.08230281103e-05
1.08580575582e-05
1.08930904803e-05
1.0928091751e-05
1.09630460366e-05
1.09980622267e-05
1.10329500576e-05
1.10678460701e-05
1.11027768365e-05
1.11376860166e-05
1.11725461945e-05
1.12074435084e-05
1.12422711115e-05
1.12770504009e-05
1.13119633682e-05
1.13467636651e-05
1.13815599527e-05
1.14164545821e-05
1.14511534555e-05
1.14860222032e-05
1.15207111432e-05
1.15555699923e-05
1.15902940734e-05
1.16251399436e-05
1.16598104907e-05
1.16948123173e-05
1.17294019083e-05
1.17643030925e-05
1.17988870502e-05
1.18337492166e-05
1.18684727595e-05
1.1903563751e-05
1.1938079336e-05
1.19728613734e-05
1.20077624435e-05
1.20425637662e-05
1.20773574385e-05
1.21123604136e-05
1.21472939853e-05
1.21819295112e-05
1.22169061642e-05
1.22516441132e-05
1.0114630132e-05
1.01475324017e-05
1.01849869312e-05
1.02217928766e-05
1.02579315882e-05
1.02937283958e-05
1.03293632558e-05
1.0364876357e-05
1.04003291651e-05
1.04357531113e-05
1.0471124182e-05
1.0506453743e-05
1.05417497276e-05
1.05769936594e-05
1.06122327074e-05
1.06474309824e-05
1.06826017039e-05
1.07177487563e-05
1.07528441434e-05
1.07879340139e-05
1.08230102703e-05
1.0858036556e-05
1.08930709161e-05
1.09280656418e-05
1.09630190087e-05
1.09980460559e-05
1.10329291937e-05
1.10678304481e-05
1.11027656816e-05
1.11376408025e-05
1.11725120306e-05
1.12074355336e-05
1.12422413199e-05
1.12770536391e-05
1.13119464262e-05
1.13467420203e-05
1.13815356765e-05
1.14163890583e-05
1.14511457362e-05
1.14860220167e-05
1.15207100345e-05
1.15555451075e-05
1.15902845152e-05
1.16251284111e-05
1.16597973606e-05
1.1694790531e-05
1.1729384873e-05
1.17643027283e-05
1.17988744503e-05
1.18337067851e-05
1.18684472798e-05
1.19035574032e-05
1.19380693099e-05
1.19728365772e-05
1.20077423637e-05
1.20425505022e-05
1.20773311361e-05
1.21123103772e-05
1.21472669941e-05
1.21819065627e-05
1.22168943563e-05
1.22516504995e-05
1.01146107498e-05
1.01475129405e-05
1.01849670758e-05
1.02217726717e-05
1.02579102747e-05
1.02937068536e-05
1.03293417671e-05
1.036485523e-05
1.04003060195e-05
1.0435731593e-05
1.04711021734e-05
1.05064316258e-05
1.05417295225e-05
1.05769714926e-05
1.0612213277e-05
1.06474096232e-05
1.06825827772e-05
1.07177289302e-05
1.07528256945e-05
1.07879140953e-05
1.08229892587e-05
1.08580169753e-05
1.08930484354e-05
1.09280501477e-05
1.09629993699e-05
1.09980307771e-05
1.10329012467e-05
1.10678013369e-05
1.11027351356e-05
1.11376275373e-05
1.1172505681e-05
1.12074190101e-05
1.12422064704e-05
1.12770164642e-05
1.13119085897e-05
1.1346728352e-05
1.13815322528e-05
1.14163812689e-05
1.14511061926e-05
1.14859960015e-05
1.15206836149e-05
1.15555229831e-05
1.15902508631e-05
1.16250913351e-05
1.16597840774e-05
1.16947694848e-05
1.17293572481e-05
1.17642654765e-05
1.17988692595e-05
1.18337188424e-05
1.18684385324e-05
1.1903525861e-05
1.19380538739e-05
1.19728076277e-05
1.20077472878e-05
1.20425546393e-05
1.20772895446e-05
1.21122679946e-05
1.21472629841e-05
1.21818878389e-05
1.22168623279e-05
1.2251618073e-05
1.01145923755e-05
1.0147494458e-05
1.01849481805e-05
1.02217535604e-05
1.02578899124e-05
1.02936864772e-05
1.03293209626e-05
1.03648339761e-05
1.04002843873e-05
1.04357096357e-05
1.04710800803e-05
1.05064115131e-05
1.05417078993e-05
1.05769504603e-05
1.0612192873e-05
1.06473902204e-05
1.06825621687e-05
1.07177102917e-05
1.075280403e-05
1.07878946861e-05
1.08229692033e-05
1.08579939969e-05
1.08930277724e-05
1.09280234757e-05
1.09629811069e-05
1.09979952337e-05
1.10328806958e-05
1.10677830339e-05
1.11027238433e-05
1.11376126102e-05
1.11724846174e-05
1.12073948695e-05
1.12421886703e-05
1.12769916556e-05
1.13119003869e-05
1.13467009703e-05
1.13815000895e-05
1.14163686593e-05
1.1451084599e-05
1.14859853988e-05
1.15206565513e-05
1.15555012799e-05
1.15902344097e-05
1.16250789684e-05
1.16597491716e-05
1.16947476209e-05
1.17293261161e-05
1.17642217065e-05
1.17988496954e-05
1.18337101842e-05
1.18684365917e-05
1.19035286896e-05
1.1938022347e-05
1.19727943799e-05
1.20076975592e-05
1.20424877742e-05
1.20772884418e-05
1.21122691719e-05
1.21472531931e-05
1.21818974019e-05
1.22168512834e-05
1.22516065637e-05
1.01145746657e-05
1.01474766255e-05
1.01849299232e-05
1.02217350827e-05
1.02578703595e-05
1.02936668276e-05
1.03293002521e-05
1.03648135751e-05
1.04002623325e-05
1.04356893481e-05
1.04710576973e-05
1.05063912349e-05
1.05416861228e-05
1.05769308675e-05
1.06121723226e-05
1.06473686359e-05
1.06825435846e-05
1.07176883154e-05
1.07527842875e-05
1.07878728468e-05
1.08229459502e-05
1.0857972852e-05
1.08930045318e-05
1.09280065341e-05
1.09629635545e-05
1.09979752452e-05
1.10328546487e-05
1.10677475655e-05
1.11026993552e-05
1.11375987537e-05
1.11724544928e-05
1.120736783e-05
1.12421652745e-05
1.12769725508e-05
1.13118864697e-05
1.13466837034e-05
1.13814761366e-05
1.14163394048e-05
1.14510719712e-05
1.14859462113e-05
1.15206414014e-05
1.15554935149e-05
1.15902168637e-05
1.16250490884e-05
1.16597368497e-05
1.16947206805e-05
1.17293239788e-05
1.17642381907e-05
1.17988237447e-05
1.18336684092e-05
1.18683987451e-05
1.1903496766e-05
1.19380131151e-05
1.19727568e-05
1.20077104428e-05
1.20425081304e-05
1.20772657266e-05
1.21122437323e-05
1.21472163e-05
1.21818604369e-05
1.2216830993e-05
1.22515734993e-05
1.01145576804e-05
1.01474595921e-05
1.018491207e-05
1.02217177215e-05
1.02578511027e-05
1.02936482114e-05
1.03292803015e-05
1.03647936223e-05
1.04002416855e-05
1.04356692232e-05
1.04710360567e-05
1.05063706754e-05
1.05416660915e-05
1.05769093923e-05
1.06121521664e-05
1.0647348684e-05
1.06825208857e-05
1.07176680201e-05
1.07527618591e-05
1.07878501731e-05
1.08229224904e-05
1.08579510725e-05
1.08929811133e-05
1.09279815687e-05
1.09629386251e-05
1.09979475054e-05
1.10328403485e-05
1.10677396617e-05
1.11026706725e-05
1.1137564707e-05
1.11724460929e-05
1.12073489968e-05
1.12421497853e-05
1.12769528951e-05
1.13118362887e-05
1.1346665116e-05
1.13814659988e-05
1.14163109958e-05
1.14510536402e-05
1.14859348458e-05
1.15206223911e-05
1.15554722513e-05
1.15902003154e-05
1.16250404746e-05
1.16597001952e-05
1.16946534895e-05
1.17293098806e-05
1.17642254634e-05
1.17988082081e-05
1.18336471221e-05
1.18683892587e-05
1.19034845848e-05
1.19379959368e-05
1.19727502622e-05
1.2007709935e-05
1.20424930996e-05
1.20772466714e-05
1.21122147785e-05
1.21472061457e-05
1.2181837126e-05
1.22168142039e-05
1.22515467463e-05
1.01145415224e-05
1.01474433067e-05
1.01848950161e-05
1.02217009385e-05
1.02578329719e-05
1.029363024e-05
1.03292613039e-05
1.03647750173e-05
1.04002227191e-05
1.04356486863e-05
1.04710165868e-05
1.05063506449e-05
1.05416451569e-05
1.05768904479e-05
1.0612129622e-05
1.06473291665e-05
1.06824982625e-05
1.07176455946e-05
1.07527381229e-05
1.07878280864e-05
1.0822899964e-05
1.08579259461e-05
1.08929580319e-05
1.09279624853e-05
1.09629220852e-05
1.0997936718e-05
1.10328130456e-05
1.1067702975e-05
1.11026502019e-05
1.11375449133e-05
1.11724130197e-05
1.12073177118e-05
1.12421378315e-05
1.12769287476e-05
1.13118154104e-05
1.13466411177e-05
1.13814483392e-05
1.14162939612e-05
1.14510289375e-05
1.14858995937e-05
1.15206068038e-05
1.15554515469e-05
1.15901828961e-05
1.16250111635e-05
1.1659688738e-05
1.16946905832e-05
1.17292828054e-05
1.17641630692e-05
1.17987864942e-05
1.18336618819e-05
1.18683634541e-05
1.19034457501e-05
1.19379582614e-05
1.19727319852e-05
1.20076560844e-05
1.20424832116e-05
1.20772316414e-05
1.21121787626e-05
1.21471862245e-05
1.21818521506e-05
1.22167953125e-05
1.22515374177e-05
1.01145264007e-05
1.01474280063e-05
1.01848788433e-05
1.02216850714e-05
1.0257815821e-05
1.02936137464e-05
1.03292436534e-05
1.03647583344e-05
1.04002044968e-05
1.04356312765e-05
1.04709964551e-05
1.0506332091e-05
1.05416259633e-05
1.05768709704e-05
1.06121082394e-05
1.06473078226e-05
1.06824761911e-05
1.07176227455e-05
1.07527141939e-05
1.07878058659e-05
1.08228759785e-05
1.08579035167e-05
1.08929364369e-05
1.09279281539e-05
1.09628864403e-05
1.09979067709e-05
1.10328085918e-05
1.1067711387e-05
1.11026166586e-05
1.11375139292e-05
1.11723941565e-05
1.12073040968e-05
1.12421125711e-05
1.12769017227e-05
1.13117992859e-05
1.13465998149e-05
1.13814217984e-05
1.14162768795e-05
1.14510139288e-05
1.14858904807e-05
1.15205751327e-05
1.15554318826e-05
1.15901545231e-05
1.16249726306e-05
1.16596782987e-05
1.16946714638e-05
1.17292575042e-05
1.1764153445e-05
1.17987515162e-05
1.18336103834e-05
1.1868350812e-05
1.19034391958e-05
1.19379681665e-05
1.1972709732e-05
1.20076639717e-05
1.20424414091e-05
1.20772058248e-05
1.21121777705e-05
1.21471785795e-05
1.21818357828e-05
1.22167745813e-05
1.22515275416e-05
1.0114512764e-05
1.01474141841e-05
1.01848639213e-05
1.02216707089e-05
1.02578005132e-05
1.02935986094e-05
1.0329228621e-05
1.03647430767e-05
1.04001892556e-05
1.04356141784e-05
1.04709792076e-05
1.05063149723e-05
1.05416070295e-05
1.05768521091e-05
1.06120884667e-05
1.06472865835e-05
1.06824535529e-05
1.07176003761e-05
1.07526911313e-05
1.07877845498e-05
1.08228522263e-05
1.08578829138e-05
1.08929040167e-05
1.092792783e-05
1.09628731783e-05
1.09978863765e-05
1.10327603375e-05
1.1067652701e-05
1.1102601546e-05
1.11375205442e-05
1.11723745615e-05
1.12072669793e-05
1.12420790818e-05
1.12768970089e-05
1.13117902041e-05
1.13465840885e-05
1.1381406245e-05
1.14162517303e-05
1.14509898943e-05
1.14858704468e-05
1.15205561369e-05
1.1555395906e-05
1.1590119658e-05
1.16249689301e-05
1.1659643859e-05
1.16946139231e-05
1.17292391991e-05
1.17641447998e-05
1.17987406405e-05
1.18336014453e-05
1.18683287858e-05
1.19034097378e-05
1.1937933577e-05
1.1972685704e-05
1.20076553515e-05
1.2042441441e-05
1.20771896597e-05
1.21121589504e-05
1.21471489275e-05
1.21817923646e-05
1.22167549923e-05
1.22515011748e-05
1.01145009113e-05
1.0147402123e-05
1.01848505414e-05
1.02216585785e-05
1.02577867887e-05
1.02935862352e-05
1.03292147761e-05
1.03647313579e-05
1.04001748809e-05
1.04356002401e-05
1.04709635395e-05
1.05062985806e-05
1.05415901812e-05
1.05768351025e-05
1.06120687164e-05
1.0647267006e-05
1.06824321627e-05
1.07175790241e-05
1.07526701815e-05
1.0787763849e-05
1.08228296576e-05
1.08578604038e-05
1.08928875186e-05
1.09278892412e-05
1.09628528118e-05
1.09978744761e-05
1.10327354713e-05
1.10676421814e-05
1.11025958148e-05
1.11374655136e-05
1.11723374988e-05
1.12072479414e-05
1.1242073396e-05
1.1276876409e-05
1.13117774453e-05
1.1346569252e-05
1.13813788436e-05
1.14162488197e-05
1.14509693827e-05
1.14858182339e-05
1.15205415482e-05
1.15553750931e-05
1.15901142285e-05
1.16249656723e-05
1.16596436372e-05
1.1694604278e-05
1.17292164456e-05
1.17641192967e-05
1.17987385289e-05
1.18335616971e-05
1.18683037733e-05
1.19034128032e-05
1.19379260717e-05
1.19726678519e-05
1.20076515678e-05
1.20423960265e-05
1.20771598775e-05
1.21121386768e-05
1.21471267724e-05
1.21817784422e-05
1.22167215912e-05
1.22514870955e-05
1.22868072421e-05
1.23213828736e-05
1.23563276198e-05
1.23914569708e-05
1.24267508973e-05
1.24615027228e-05
1.24962576913e-05
1.25311916891e-05
1.25666042503e-05
1.26015189218e-05
1.26366191062e-05
1.2671423031e-05
1.27064335826e-05
1.2741724999e-05
1.27773517203e-05
1.28119918494e-05
1.28471115546e-05
1.28820239937e-05
1.29172955462e-05
1.29528003771e-05
1.29881476225e-05
1.30237751065e-05
1.30588939446e-05
1.3094801581e-05
1.31292372358e-05
1.31648105964e-05
1.31996152386e-05
1.32352874417e-05
1.32706291769e-05
1.33069305682e-05
1.33422161578e-05
1.33789588839e-05
1.34134308719e-05
1.34499105756e-05
1.34836729028e-05
1.35202654034e-05
1.35545897355e-05
1.35918783667e-05
1.36266219087e-05
1.36659561785e-05
1.36990069378e-05
1.37364507161e-05
1.37920181193e-05
1.36716294753e-05
1.34546283327e-05
1.32528073091e-05
1.31978062948e-05
1.31931810621e-05
1.32150196307e-05
1.32476953193e-05
1.32801486448e-05
1.3310184419e-05
1.33318649628e-05
1.33471405348e-05
1.33615012398e-05
1.33777000921e-05
1.33981199417e-05
1.34240683368e-05
1.34558429617e-05
1.34925160838e-05
1.35320409055e-05
1.35739124692e-05
1.36179121666e-05
1.22867413035e-05
1.23213955275e-05
1.23563296404e-05
1.23914378628e-05
1.24267046863e-05
1.24614885699e-05
1.24962570518e-05
1.25311759742e-05
1.25665647959e-05
1.2601500389e-05
1.26366234223e-05
1.26714188686e-05
1.27064295868e-05
1.27417228056e-05
1.27773383531e-05
1.28119675451e-05
1.28471013035e-05
1.28820189551e-05
1.29172804367e-05
1.29527968789e-05
1.29880870683e-05
1.30237667474e-05
1.30588617012e-05
1.30947870323e-05
1.31292452377e-05
1.31648003735e-05
1.31995785718e-05
1.32352604773e-05
1.32705921204e-05
1.33069090569e-05
1.33422140625e-05
1.33789457554e-05
1.34134132217e-05
1.34498883112e-05
1.34836412071e-05
1.35202718641e-05
1.3554590824e-05
1.35918907325e-05
1.36266404148e-05
1.36660383007e-05
1.36989005692e-05
1.37368523471e-05
1.37922765803e-05
1.36777922915e-05
1.34642091132e-05
1.32640441035e-05
1.32077078803e-05
1.32018010311e-05
1.32216791774e-05
1.32519175105e-05
1.32813930399e-05
1.33055028702e-05
1.33226741123e-05
1.33352549199e-05
1.3349238788e-05
1.33662455994e-05
1.33880096495e-05
1.34155061893e-05
1.34488330543e-05
1.34867617531e-05
1.35274423194e-05
1.35702384572e-05
1.36151158671e-05
1.22867290212e-05
1.23213473576e-05
1.2356307542e-05
1.23914215846e-05
1.24266952948e-05
1.24614745112e-05
1.24962385988e-05
1.25311396607e-05
1.25665582233e-05
1.26014743082e-05
1.26366343108e-05
1.26714027405e-05
1.27064156565e-05
1.2741693856e-05
1.27773360472e-05
1.28119358214e-05
1.28470657338e-05
1.28819853708e-05
1.29172165109e-05
1.29527733703e-05
1.29880221223e-05
1.30237904443e-05
1.30588664315e-05
1.30947942506e-05
1.31292542815e-05
1.31647644185e-05
1.31995522152e-05
1.32352693242e-05
1.3270593269e-05
1.33069385061e-05
1.3342233282e-05
1.33789494818e-05
1.34133904865e-05
1.34498475842e-05
1.34836165738e-05
1.35202740581e-05
1.3554606176e-05
1.35919150181e-05
1.36266557985e-05
1.36661062311e-05
1.36987819828e-05
1.37373062838e-05
1.3792470323e-05
1.36836610811e-05
1.34739199534e-05
1.32759439242e-05
1.32183045319e-05
1.32109997401e-05
1.32285267661e-05
1.32556497512e-05
1.32814752676e-05
1.32986030845e-05
1.33127547595e-05
1.33241088487e-05
1.33377325866e-05
1.33552793925e-05
1.33783664151e-05
1.34076221416e-05
1.34426923869e-05
1.34817825926e-05
1.35235384306e-05
1.3567258181e-05
1.36127845046e-05
1.22866993397e-05
1.23213328129e-05
1.23562912488e-05
1.23914086456e-05
1.24266577203e-05
1.24614537852e-05
1.24962237083e-05
1.25311160898e-05
1.25665433623e-05
1.26014588587e-05
1.26365999879e-05
1.26713662296e-05
1.27063855025e-05
1.27416743194e-05
1.27773585344e-05
1.28119160193e-05
1.28470305899e-05
1.28819496874e-05
1.29171788108e-05
1.29527731268e-05
1.29879985162e-05
1.30238046481e-05
1.30588620329e-05
1.30947729839e-05
1.31292642295e-05
1.31647686386e-05
1.31995388907e-05
1.32352588489e-05
1.32705736852e-05
1.33069230463e-05
1.33422157503e-05
1.33789190594e-05
1.34133700427e-05
1.34498332098e-05
1.34836278811e-05
1.35202973168e-05
1.355462727e-05
1.35919400421e-05
1.36266569486e-05
1.36661130366e-05
1.36986757912e-05
1.37378729065e-05
1.37926252421e-05
1.36892069913e-05
1.34837403467e-05
1.3288470321e-05
1.32295698354e-05
1.32206827945e-05
1.32354890448e-05
1.32581948059e-05
1.32803095683e-05
1.32914861355e-05
1.33022021255e-05
1.33127345402e-05
1.33267973228e-05
1.33455229243e-05
1.33700589948e-05
1.34008503651e-05
1.3437124892e-05
1.34771746434e-05
1.35198476617e-05
1.35642654211e-05
1.36103405755e-05
1.22867340106e-05
1.23212968342e-05
1.23562497805e-05
1.2391345437e-05
1.24266201636e-05
1.24614401891e-05
1.249622025e-05
1.25311035383e-05
1.25665486809e-05
1.26014263496e-05
1.26365953967e-05
1.26713535051e-05
1.27063694932e-05
1.27416460845e-05
1.27773267221e-05
1.28118965597e-05
1.28470501966e-05
1.28819481622e-05
1.29171702938e-05
1.29527478461e-05
1.29879665027e-05
1.30237734685e-05
1.30588343931e-05
1.30947494146e-05
1.31292494834e-05
1.3164754158e-05
1.31995258812e-05
1.32352563538e-05
1.32705655513e-05
1.33069142363e-05
1.33422239496e-05
1.33789097167e-05
1.3413361503e-05
1.344981655e-05
1.34836222065e-05
1.35202885652e-05
1.3554643195e-05
1.35919709567e-05
1.36266799901e-05
1.36661212772e-05
1.36986097653e-05
1.37385105359e-05
1.37926647968e-05
1.36943550296e-05
1.34936098063e-05
1.33016104154e-05
1.32415725749e-05
1.32307956933e-05
1.32407833524e-05
1.32633308163e-05
1.32771450688e-05
1.32843411124e-05
1.3291901171e-05
1.33017229126e-05
1.33163351187e-05
1.33365736597e-05
1.33627860441e-05
1.33949543897e-05
1.34321427077e-05
1.34728573573e-05
1.351626558e-05
1.35613313806e-05
1.36077958675e-05
1.22866984555e-05
1.23212994594e-05
1.23562516273e-05
1.23913365686e-05
1.24266129494e-05
1.24614194815e-05
1.24962067078e-05
1.25310840563e-05
1.25665200302e-05
1.26014067971e-05
1.26365632786e-05
1.26713245087e-05
1.27063632853e-05
1.2741624348e-05
1.27773233758e-05
1.28118740937e-05
1.28470258355e-05
1.28819136683e-05
1.29171512591e-05
1.29527303383e-05
1.29879715532e-05
1.30237520228e-05
1.30588283257e-05
1.30947313661e-05
1.31292358408e-05
1.31647336094e-05
1.31995078771e-05
1.32352401087e-05
1.32705484696e-05
1.33069339754e-05
1.33422205571e-05
1.33788918004e-05
1.34133691958e-05
1.34498241357e-05
1.34836381061e-05
1.35202816295e-05
1.35546393556e-05
1.35919623731e-05
1.36266910723e-05
1.36660752867e-05
1.36985963408e-05
1.3739203791e-05
1.379257671e-05
1.36990753494e-05
1.35034594913e-05
1.33152923036e-05
1.3254204514e-05
1.32412753564e-05
1.3248707756e-05
1.32639617445e-05
1.32736057252e-05
1.32769117249e-05
1.3282030084e-05
1.3291041072e-05
1.33062006371e-05
1.332787768e-05
1.33555763373e-05
1.33889394465e-05
1.34270278914e-05
1.34685506262e-05
1.35130626434e-05
1.35591269851e-05
1.36063073276e-05
1.22866888281e-05
1.23212535892e-05
1.23562131251e-05
1.23913003406e-05
1.24266200884e-05
1.24613834894e-05
1.24961767112e-05
1.25310431008e-05
1.256649502e-05
1.26013933787e-05
1.26365514345e-05
1.26713142496e-05
1.27063521994e-05
1.27416055775e-05
1.27772987299e-05
1.2811851823e-05
1.28470134725e-05
1.28819036711e-05
1.29171571205e-05
1.29527097656e-05
1.29879599208e-05
1.30237240704e-05
1.30588191697e-05
1.30947126867e-05
1.31292433616e-05
1.3164735525e-05
1.31994809694e-05
1.32352110878e-05
1.32705137981e-05
1.33069202028e-05
1.33422361735e-05
1.33788955218e-05
1.34133721822e-05
1.34497915951e-05
1.34836283513e-05
1.35202449559e-05
1.35546365389e-05
1.35919547667e-05
1.36267290537e-05
1.3666031635e-05
1.36986386624e-05
1.37399795782e-05
1.37923398852e-05
1.37033299543e-05
1.35132648724e-05
1.33295141975e-05
1.32675481339e-05
1.32521898951e-05
1.32556266278e-05
1.32647604033e-05
1.32689657661e-05
1.3268369096e-05
1.32719387852e-05
1.32801373181e-05
1.32961558997e-05
1.33196746734e-05
1.3349501429e-05
1.33847572955e-05
1.34242042687e-05
1.34666095313e-05
1.35114636221e-05
1.35574844794e-05
1.3604226904e-05
1.22866888617e-05
1.23212341946e-05
1.2356198784e-05
1.2391292272e-05
1.24266234279e-05
1.24613466517e-05
1.24961482959e-05
1.25309994331e-05
1.25664531575e-05
1.26013732167e-05
1.2636527955e-05
1.2671290695e-05
1.27063353674e-05
1.27415811392e-05
1.27772756858e-05
1.28118292153e-05
1.28470181309e-05
1.28818874432e-05
1.29171547338e-05
1.29527030703e-05
1.29879877662e-05
1.30237014867e-05
1.30587935594e-05
1.3094674749e-05
1.31292104587e-05
1.31646953016e-05
1.31994791748e-05
1.32352107259e-05
1.32705248496e-05
1.33069282068e-05
1.33422340795e-05
1.3378875715e-05
1.34133811873e-05
1.34497844014e-05
1.34836748619e-05
1.35202549739e-05
1.35546808358e-05
1.3591984563e-05
1.36267585278e-05
1.36659150877e-05
1.36986869373e-05
1.37407642508e-05
1.37919889277e-05
1.3707147904e-05
1.35230594105e-05
1.33442198148e-05
1.32815036242e-05
1.32635324815e-05
1.3262049062e-05
1.32638433626e-05
1.32630464818e-05
1.3258524614e-05
1.3261111087e-05
1.32701778967e-05
1.32873286862e-05
1.33125640875e-05
1.33442427539e-05
1.33812006133e-05
1.34220069597e-05
1.34652305678e-05
1.35103523002e-05
1.35564022399e-05
1.36031504646e-05
1.22866471542e-05
1.23212058013e-05
1.23561818083e-05
1.23912653511e-05
1.24265823362e-05
1.24613522985e-05
1.24961555088e-05
1.25309901249e-05
1.25664204042e-05
1.26013555411e-05
1.26365063751e-05
1.26712778817e-05
1.27063430033e-05
1.27415611564e-05
1.27772757987e-05
1.2811804911e-05
1.2846978883e-05
1.28818544898e-05
1.29171448793e-05
1.29526747517e-05
1.29879745392e-05
1.30236691475e-05
1.30587814167e-05
1.30946703119e-05
1.31292047502e-05
1.31646736445e-05
1.31994653138e-05
1.32351935946e-05
1.32704980743e-05
1.33069168317e-05
1.33422166522e-05
1.3378836e-05
1.34133858594e-05
1.34497753838e-05
1.34837055342e-05
1.3520241507e-05
1.3554684252e-05
1.35919385406e-05
1.36268016773e-05
1.36658084567e-05
1.36988164687e-05
1.37416278049e-05
1.3791423391e-05
1.37103697345e-05
1.35326504688e-05
1.33592880457e-05
1.32959191659e-05
1.32752166718e-05
1.32681692378e-05
1.32651220768e-05
1.32578960403e-05
1.32502224017e-05
1.32512147849e-05
1.32610219922e-05
1.32787847341e-05
1.33056004762e-05
1.3339108325e-05
1.33775510196e-05
1.34193325417e-05
1.346310149e-05
1.3508207993e-05
1.35542035108e-05
1.3600819123e-05
1.22866260627e-05
1.23211970605e-05
1.23561788333e-05
1.23912581727e-05
1.24265712365e-05
1.24613327633e-05
1.24961291977e-05
1.25309491124e-05
1.25663984855e-05
1.26013231243e-05
1.26364905889e-05
1.26712810196e-05
1.27063483225e-05
1.27415617774e-05
1.27772567809e-05
1.28117763546e-05
1.28469638077e-05
1.28818321553e-05
1.2917147296e-05
1.29526520234e-05
1.29879853226e-05
1.30236346824e-05
1.3058762612e-05
1.30946313744e-05
1.31291687705e-05
1.31646598451e-05
1.31994375508e-05
1.32351604713e-05
1.32704734023e-05
1.33069248659e-05
1.33422226999e-05
1.33788326618e-05
1.34133959287e-05
1.34497509524e-05
1.3483715189e-05
1.35202102247e-05
1.35547168101e-05
1.35919462702e-05
1.36268656382e-05
1.3665687134e-05
1.3698960658e-05
1.37424654724e-05
1.37907239573e-05
1.37130981028e-05
1.35421667011e-05
1.33747814253e-05
1.33109365712e-05
1.32871376949e-05
1.32744539522e-05
1.32626842601e-05
1.32497222122e-05
1.32414029807e-05
1.32427336297e-05
1.32540600566e-05
1.32721079041e-05
1.3300365335e-05
1.3335655221e-05
1.337540069e-05
1.34178208254e-05
1.34618141945e-05
1.35069376555e-05
1.35529354894e-05
1.35995065678e-05
1.22865966408e-05
1.23211826402e-05
1.23561639104e-05
1.23912358041e-05
1.24265386289e-05
1.24613202556e-05
1.24961229101e-05
1.25309361276e-05
1.25663555172e-05
1.26013075039e-05
1.26364860365e-05
1.26712478886e-05
1.27062906072e-05
1.27415097063e-05
1.27772490792e-05
1.28117552004e-05
1.28469462599e-05
1.28817959272e-05
1.29171251411e-05
1.29526226304e-05
1.29880048755e-05
1.3023606543e-05
1.30587635849e-05
1.30946186934e-05
1.31291526039e-05
1.31646662638e-05
1.31994416994e-05
1.32351500328e-05
1.32704460711e-05
1.33069380836e-05
1.33422058595e-05
1.33788021372e-05
1.34134133245e-05
1.34497603837e-05
1.34837414707e-05
1.35202006973e-05
1.35547217434e-05
1.35918916811e-05
1.36269117576e-05
1.36655387732e-05
1.3699180628e-05
1.37433315079e-05
1.37898282705e-05
1.37152223658e-05
1.35514328545e-05
1.33904887385e-05
1.33265266072e-05
1.32989158034e-05
1.32799053241e-05
1.32645355868e-05
1.32426242765e-05
1.32327270973e-05
1.32343384716e-05
1.32471191862e-05
1.32659789862e-05
1.32955405485e-05
1.33322985937e-05
1.33732736242e-05
1.34167025942e-05
1.34612510542e-05
1.35066222552e-05
1.35525369958e-05
1.35988187771e-05
1.22865920036e-05
1.23211510734e-05
1.23561365654e-05
1.23912102056e-05
1.24265544679e-05
1.2461290021e-05
1.24961014785e-05
1.25309108904e-05
1.25663313748e-05
1.26012822791e-05
1.26364579065e-05
1.26712367597e-05
1.27063073621e-05
1.27414890598e-05
1.27772335874e-05
1.28117348041e-05