/*--------------------------------*- C++ -*----------------------------------*\
  =========                 |
  \\      /  F ield         | OpenFOAM: The Open Source CFD Toolbox
   \\    /   O peration     | Website:  https://openfoam.org
    \\  /    A nd           | Version:  6
     \\/     M anipulation  |
\*---------------------------------------------------------------------------*/
FoamFile
{
    version     2.0;
    format      ascii;
    class       volScalarField;
    location    "0.0002";
    object      O2;
}
// * * * * * * * * * * * * * * * * * * * * * * * * * * * * * * * * * * * * * //

dimensions      [0 0 0 0 0 0 0];

internalField   nonuniform List<scalar> 
208908
(
0.000611143127858
0.000611145830314
0.000611152198742
0.000611162384926
0.000611176345328
0.000611194009259
0.000611215307917
0.00061124018178
0.000611268577388
0.000611300446493
0.000611335733478
0.000611374384577
0.000611416349271
0.000611461576843
0.0006115100232
0.000611561640235
0.000611616378758
0.000611674190275
0.000611735022555
0.000611798835395
0.00061186558599
0.000611935226295
0.000612007711068
0.000612082981309
0.000612161118335
0.000612241611322
0.00061232565206
0.000612411284364
0.000612499723724
0.000612590922894
0.00061268506844
0.000612780686738
0.000612879150432
0.000612980168293
0.000613083440595
0.000613188974475
0.000613296722714
0.000613406438075
0.000613519440808
0.00061363253795
0.00061375005936
0.000613867973774
0.00061398889943
0.000614110302208
0.00061423577243
0.000614360333931
0.000614491896299
0.000614619003312
0.0006147515704
0.000614884295171
0.000615021670023
0.00061515531237
0.000615297788916
0.000615435994901
0.000615576470672
0.000615719509972
0.000615867936839
0.000616010657662
0.000616159926986
0.00061630787094
0.000616464412553
0.000616611153543
0.000611143067954
0.000611145770446
0.000611152138862
0.000611162325092
0.000611176285442
0.000611193949436
0.000611215248555
0.000611240122763
0.000611268518771
0.000611300388098
0.000611335675702
0.000611374327532
0.000611416292997
0.000611461521174
0.000611509968433
0.000611561586216
0.000611616325558
0.000611674137768
0.000611734970819
0.000611798784769
0.000611865536175
0.000611935176667
0.000612007664013
0.000612082920838
0.000612161157826
0.000612241566778
0.000612325439398
0.000612411307171
0.000612499767019
0.000612590883942
0.000612684653127
0.000612780658567
0.000612879302694
0.00061298023705
0.000613083389944
0.000613188862985
0.000613296788746
0.000613406391936
0.000613519443651
0.000613632703103
0.000613750026279
0.000613867708481
0.000613988769195
0.000614110078843
0.000614235831803
0.000614360382243
0.000614492077465
0.000614618953892
0.000614751636171
0.000614884242994
0.000615021686547
0.000615155208127
0.000615297729426
0.000615435892144
0.00061557642042
0.000615719744812
0.000615867873233
0.000616010733796
0.000616160525297
0.000616307696836
0.000616463992205
0.000616610650568
0.000611143004879
0.000611145707393
0.000611152075834
0.000611162262014
0.000611176222309
0.000611193886346
0.000611215185772
0.000611240060432
0.000611268456732
0.000611300326371
0.000611335614319
0.000611374266911
0.000611416233154
0.000611461461939
0.00061150990994
0.000611561528538
0.000611616268493
0.000611674081717
0.000611734915737
0.000611798730578
0.000611865482677
0.000611935124106
0.000612007610614
0.000612082887111
0.000612160974135
0.000612241581766
0.000612325350085
0.000612411243352
0.000612499679426
0.000612590803496
0.000612684727371
0.000612780717751
0.000612879165588
0.000612980058446
0.000613083294842
0.000613188841256
0.000613296668188
0.000613406296614
0.00061351969109
0.000613632607391
0.000613749517462
0.000613867720901
0.000613989129777
0.000614110218255
0.000614235482872
0.000614360285998
0.000614491813831
0.000614619037414
0.000614752139117
0.000614884223681
0.000615021383103
0.000615155156373
0.00061529783502
0.000615435973808
0.00061557647919
0.000615719654855
0.000615867791179
0.000616010605137
0.000616160014786
0.000616307631326
0.000616464453428
0.00061661082716
0.000611142938984
0.000611145641525
0.000611152009977
0.000611162196115
0.000611176156283
0.000611193820285
0.000611215119914
0.000611239995088
0.000611268391597
0.00061130026145
0.000611335549788
0.000611374202962
0.000611416169873
0.000611461399539
0.000611509847954
0.000611561467241
0.000611616208229
0.000611674022191
0.000611734857317
0.000611798673198
0.000611865426014
0.000611935067658
0.000612007563583
0.000612082773794
0.000612161306633
0.000612241471511
0.000612325081112
0.00061241125613
0.000612499772628
0.000612590807646
0.000612684479331
0.000612780633021
0.000612879209305
0.000612980075428
0.0006130831204
0.000613188924645
0.00061329678015
0.00061340626832
0.000613519197125
0.000613632512377
0.000613749961306
0.000613867762528
0.000613988565769
0.000614110042662
0.000614235478973
0.000614360200113
0.000614491920316
0.000614618805288
0.000614751478158
0.000614884125597
0.000615021758665
0.000615155356655
0.000615297715239
0.000615435920977
0.000615576420941
0.000615719617277
0.000615867895994
0.000616010480991
0.000616160447809
0.000616307893165
0.000616463777327
0.000616611207644
0.000611142870987
0.00061114557355
0.000611151942004
0.000611162128123
0.000611176088041
0.000611193752013
0.000611215051797
0.000611239927392
0.000611268324051
0.000611300194289
0.000611335482626
0.000611374136556
0.000611416104117
0.000611461334252
0.000611509783376
0.000611561403438
0.000611616144785
0.000611673960209
0.00061173479621
0.000611798613219
0.0006118653672
0.000611935009704
0.000612007503383
0.000612082736764
0.000612161157235
0.000612241379322
0.000612325229073
0.000612411231234
0.000612499646808
0.00061259060864
0.000612684816233
0.000612780569104
0.000612879139477
0.000612980005872
0.000613083115042
0.000613188643605
0.000613296578865
0.000613406379427
0.000613519339658
0.000613632515866
0.000613749661743
0.000613867477835
0.000613988590629
0.000614110334952
0.000614235599732
0.000614360280989
0.000614492029445
0.000614618883049
0.000614751674236
0.000614884059609
0.000615021164622
0.000615155080932
0.000615297771436
0.000615436162882
0.000615576666819
0.000615719914375
0.000615867514694
0.00061601048407
0.000616159749044
0.000616307665939
0.000616464417338
0.0006166111223
0.000611142801135
0.000611145503713
0.000611151872191
0.000611162058228
0.000611176017978
0.00061119368171
0.0006112149818
0.000611239857506
0.000611268254594
0.000611300124894
0.000611335413448
0.000611374067829
0.000611416036056
0.000611461266699
0.000611509716341
0.000611561336775
0.000611616079107
0.000611673895715
0.000611734732941
0.000611798550968
0.000611865305952
0.000611934949772
0.000612007441665
0.000612082702155
0.000612160932613
0.000612241390889
0.000612325204384
0.000612411036598
0.000612499517495
0.000612590646804
0.000612684810613
0.000612780584463
0.000612878938588
0.000612979891906
0.00061308314111
0.000613188934536
0.000613296545419
0.000613406148857
0.000613519388619
0.000613632443601
0.000613749986529
0.000613867632168
0.000613988615979
0.000614110122413
0.000614235820942
0.000614360168011
0.000614491840286
0.000614618787995
0.000614751667642
0.000614884071224
0.000615021624971
0.000615155233085
0.000615297584342
0.000615435794981
0.000615576525015
0.00061571980061
0.000615867397989
0.00061601039081
0.000616159871897
0.000616307934635
0.000616464397965
0.000616610999987
0.00061114272991
0.000611145432514
0.000611151800971
0.000611161987017
0.000611175946454
0.000611193610037
0.00061121491018
0.000611239786222
0.000611268183445
0.000611300053765
0.000611335342593
0.000611373997401
0.000611415966119
0.000611461197378
0.000611509647125
0.000611561268231
0.000611616011429
0.000611673829188
0.000611734667661
0.00061179848681
0.000611865243276
0.000611934888056
0.000612007378444
0.000612082658551
0.000612160768344
0.000612241337093
0.000612325247982
0.000612411003367
0.000612499408481
0.000612590611032
0.000612684491858
0.000612780555698
0.000612879057418
0.000612979902857
0.000613083019419
0.000613188578023
0.000613296495994
0.000613406388875
0.000613519010489
0.000613632308556
0.000613749849944
0.000613867621658
0.000613988754951
0.000614110012012
0.000614235493214
0.000614360054159
0.000614491847765
0.000614618658667
0.000614751816043
0.000614884178044
0.000615021369569
0.000615155088977
0.000615297815095
0.000615435863448
0.000615576516223
0.000615719743372
0.00061586775741
0.000616010544844
0.000616159901584
0.00061630792473
0.000616463742589
0.000616610895203
0.000611142657446
0.000611145360058
0.000611151728528
0.000611161914519
0.000611175873782
0.000611193537134
0.000611214837309
0.000611239713624
0.000611268110776
0.000611299981241
0.000611335270236
0.000611373925256
0.000611415894703
0.000611461126205
0.000611509576566
0.000611561197885
0.000611615942008
0.000611673760899
0.000611734600955
0.000611798421233
0.000611865178506
0.000611934824231
0.000612007317671
0.000612082582035
0.00061216080604
0.000612241246038
0.000612325201806
0.000612410972686
0.000612499397396
0.000612590542048
0.000612684591313
0.000612780387944
0.000612878964225
0.000612979936388
0.000613083106255
0.000613188553266
0.000613296491118
0.000613406143556
0.000613519280837
0.000613632379738
0.00061374975757
0.000613867491107
0.000613988503805
0.000614110124677
0.00061423555494
0.00061436005632
0.000614491594455
0.000614618784015
0.000614751565692
0.0006148839744
0.000615021532908
0.000615155215181
0.000615297930845
0.000615435826391
0.00061557624401
0.000615719429465
0.000615867767043
0.0006160108283
0.000616160394428
0.000616307832466
0.000616463713826
0.000616610931871
0.000611142584151
0.000611145286766
0.000611151655237
0.000611161841195
0.000611175800277
0.000611193463434
0.000611214763573
0.000611239639956
0.000611268037173
0.000611299907479
0.000611335196509
0.000611373852146
0.000611415821965
0.000611461053773
0.000611509504567
0.000611561126516
0.00061161587127
0.000611673691422
0.000611734532458
0.000611798354302
0.000611865112889
0.000611934759248
0.000612007251669
0.00061208253181
0.000612160665891
0.000612241223327
0.000612325013875
0.000612410915269
0.000612499369445
0.000612590486505
0.000612684496418
0.000612780321374
0.000612878912693
0.000612979906791
0.000613083032106
0.000613188673189
0.000613296313997
0.000613406065303
0.000613518997126
0.000613632273297
0.000613750032877
0.000613867600111
0.00061398853386
0.000614109938784
0.000614235289532
0.000614360108382
0.000614492052395
0.000614619018313
0.000614751699603
0.000614883802347
0.000615021182829
0.000615154848552
0.000615297847974
0.000615435893255
0.000615576599373
0.000615719944552
0.000615867803295
0.000616010522799
0.000616159601381
0.000616307362827
0.000616463982871
0.000616611145934
0.000611142510258
0.000611145212867
0.000611151581348
0.000611161767267
0.000611175726225
0.000611193389212
0.000611214689185
0.000611239565583
0.000611267962627
0.000611299833052
0.000611335121973
0.000611373778017
0.000611415748188
0.000611460980704
0.000611509431851
0.000611561053926
0.000611615799813
0.00061167362087
0.000611734463452
0.000611798286306
0.000611865045531
0.000611934692836
0.000612007188333
0.000612082453169
0.000612160705374
0.000612241126676
0.000612324939219
0.000612410905768
0.000612499352171
0.000612590399514
0.000612684273354
0.000612780346311
0.000612878978128
0.000612979899025
0.000613082945256
0.000613188393892
0.000613296256638
0.000613406171042
0.000613519326736
0.000613632327816
0.000613749732722
0.000613867356735
0.00061398827976
0.0006141099436
0.000614235464859
0.000614360054527
0.00061449175959
0.000614618622695
0.000614751522505
0.000614883966007
0.000615021391066
0.000615155107966
0.000615297951392
0.0006154359668
0.000615576289626
0.000615719402136
0.000615867611662
0.000616010592207
0.000616159751676
0.00061630778161
0.000616464074434
0.000616611183719
0.000611142436121
0.00061114513874
0.000611151507167
0.000611161693137
0.000611175651898
0.000611193314765
0.000611214614546
0.000611239490827
0.000611267887745
0.000611299758113
0.000611335046886
0.000611373703221
0.000611415674005
0.000611460906749
0.000611509358469
0.000611560981188
0.000611615727482
0.000611673549825
0.000611734393563
0.000611798217391
0.000611864977469
0.000611934625982
0.000612007121124
0.000612082396478
0.000612160577042
0.000612241098083
0.000612324878123
0.000612410773942
0.000612499277264
0.00061259041956
0.000612684354703
0.000612780207533
0.00061287877179
0.000612979779777
0.000613082993442
0.000613188432364
0.00061329619313
0.000613406089795
0.000613518984278
0.000613632197986
0.000613749515627
0.000613867423759
0.000613988783852
0.000614109922093
0.000614235154156
0.000614360266546
0.000614491529002
0.000614618572854
0.000614751260254
0.000614884026182
0.00061502148988
0.000615155176687
0.000615297925261
0.000615435816825
0.000615576102507
0.000615719269272
0.000615867719599
0.000616010640512
0.000616159729047
0.000616307732122
0.000616464298917
0.00061661080381
0.000611142361976
0.000611145064586
0.000611151432979
0.000611161618956
0.000611175577593
0.000611193240262
0.00061121453983
0.000611239416085
0.000611267812969
0.000611299682918
0.000611334971792
0.000611373628314
0.000611415599373
0.000611460832825
0.000611509284733
0.000611560908362
0.000611615655266
0.000611673478366
0.000611734322964
0.000611798148158
0.000611864909416
0.000611934558107
0.000612007056179
0.00061208231448
0.000612160631132
0.000612240973493
0.000612324956723
0.000612410733601
0.000612499155431
0.000612590274722
0.000612684332988
0.000612780230071
0.000612878705102
0.000612979674114
0.000613082925654
0.000613188391502
0.000613296187858
0.000613406005016
0.000613518975537
0.000613632251956
0.00061374940996
0.000613867299563
0.000613988603742
0.000614109925269
0.000614235210036
0.000614359886335
0.000614492085562
0.000614618770047
0.000614751269423
0.000614883570736
0.000615021348048
0.000615155135381
0.000615298012225
0.000615435898018
0.000615576324581
0.000615719328296
0.000615867569845
0.000616010665133
0.000616159871723
0.000616307314276
0.000616464014895
0.000616611264035
0.000611142288189
0.000611144990788
0.000611151359133
0.000611161545098
0.000611175503585
0.000611193166102
0.000611214465449
0.000611239341733
0.000611267738462
0.00061129960831
0.000611334896718
0.000611373553373
0.000611415524947
0.000611460758992
0.000611509211327
0.000611560835545
0.00061161558321
0.000611673407022
0.000611734252325
0.000611798078673
0.00061186484087
0.000611934491057
0.00061200698637
0.000612082277696
0.000612160343504
0.000612241004307
0.000612324910421
0.000612410551262
0.000612499059963
0.000612590316545
0.000612684403862
0.000612780168305
0.000612878604311
0.000612979619845
0.000613082907775
0.000613188547903
0.000613296254488
0.000613405963141
0.000613518715327
0.000613632062583
0.000613749631223
0.000613867360466
0.000613988531267
0.000614109949154
0.00061423511209
0.0006143597683
0.000614491640988
0.000614618719611
0.000614751448552
0.000614883964416
0.000615021343243
0.000615154995812
0.000615297436861
0.000615435798958
0.000615576235627
0.000615719488776
0.000615867726931
0.000616010622076
0.000616159819518
0.00061630722087
0.000616463687588
0.000616611175817
0.000611142214687
0.000611144917276
0.000611151285546
0.000611161471503
0.000611175429858
0.000611193092094
0.000611214391359
0.0006112392676
0.000611267664407
0.000611299533858
0.000611334822072
0.000611373478803
0.00061141545056
0.000611460685159
0.000611509138337
0.000611560763094
0.000611615511127
0.000611673335499
0.000611734181631
0.000611798009328
0.000611864772627
0.00061193442301
0.00061200692623
0.000612082159995
0.000612160599617
0.000612240895321
0.000612324636461
0.000612410640214
0.000612499155776
0.000612590182478
0.00061268422572
0.000612780094527
0.000612878652031
0.000612979561656
0.000613082706037
0.000613188273044
0.000613296286502
0.000613405904196
0.000613519044921
0.000613632048429
0.000613749566193
0.000613867253682
0.000613988549139
0.000614109890412
0.000614235281059
0.000614360034699
0.000614491778664
0.00061461853854
0.00061475109503
0.000614883718198
0.000615021377193
0.000615155090502
0.000615297617967
0.00061543588307
0.000615576169063
0.00061571925667
0.000615867672061
0.000616010603392
0.000616159605644
0.000616307652445
0.00061646421593
0.000616611027199
0.000611142141691
0.000611144844266
0.000611151212431
0.000611161398465
0.000611175356584
0.000611193018652
0.000611214317653
0.000611239194103
0.000611267590778
0.000611299460107
0.000611334748021
0.000611373404508
0.000611415376571
0.000611460611864
0.000611509065622
0.000611560690975
0.000611615439367
0.00061167326422
0.000611734111314
0.000611797940184
0.000611864704348
0.000611934356611
0.000612006854968
0.000612082131475
0.000612160367575
0.000612240768275
0.000612324792609
0.00061241063875
0.000612499008097
0.000612590122928
0.000612683934684
0.0006127801291
0.000612878664989
0.000612979528448
0.000613082641334
0.000613188212776
0.000613296095631
0.000613405842373
0.000613519066473
0.000613632159451
0.000613749231429
0.000613867151953
0.000613988043128
0.000614109745113
0.000614235403031
0.000614359981843
0.000614491598459
0.000614618529623
0.000614751166755
0.000614883757819
0.000615021127006
0.000615154923184
0.00061529790789
0.00061543581561
0.000615576008593
0.000615719324894
0.000615867615364
0.000616010679458
0.000616159755059
0.000616307751036
0.000616464075663
0.000616611550646
0.000616759784233
0.00061691672981
0.000617077365344
0.000617232010111
0.00061738713019
0.000617546954095
0.000617709889504
0.00061787150202
0.000618029305391
0.000618195526326
0.000618358810893
0.000618536116351
0.000618694520232
0.000618860356523
0.000619020209315
0.000619194416181
0.000619360598678
0.000619543258627
0.000619707466401
0.000619887234503
0.000620049447195
0.000620220234065
0.000620389511735
0.000620558903276
0.000620741637255
0.000620913104995
0.000621099853078
0.000621274217687
0.000621457339688
0.000621629057335
0.000621803287574
0.00062196975559
0.000622146975002
0.000622318716344
0.000622507636217
0.000622681233354
0.000622881048334
0.000623047582593
0.000623250519119
0.000623405177292
0.000623602632444
0.000623741357013
0.000624001884205
0.000624170019757
0.00062428150724
0.000624494872249
0.000624655861872
0.000624815980149
0.000624974244891
0.000625129756648
0.00062525785039
0.000625381752685
0.000625519853083
0.000625665654575
0.00062579889516
0.000625940629647
0.000626083178376
0.000626222744558
0.000626361222341
0.000626507495666
0.000626659341118
0.000626820748862
0.000626982122251
0.000616759960571
0.000616916479185
0.000617077317485
0.000617232158538
0.000617387329928
0.000617546737803
0.00061770979918
0.000617871665627
0.000618029458361
0.000618195494787
0.00061835868344
0.000618536005955
0.00061869410528
0.000618860795876
0.000619020248273
0.000619194680578
0.000619360510111
0.000619542894382
0.000619707225114
0.000619886888074
0.000620049583493
0.000620220279289
0.00062038999015
0.000620559147556
0.000620741283796
0.000620913060236
0.000621100001112
0.00062127447991
0.000621457664585
0.000621629561583
0.000621803696474
0.00062196983992
0.00062214704083
0.000622318787916
0.000622507693641
0.000622681139089
0.000622881078114
0.000623047647238
0.000623250833168
0.000623405131176
0.000623603772073
0.000623741552773
0.00062400161809
0.000624170046917
0.000624282814118
0.000624495858958
0.000624657196817
0.00062481755767
0.000624975953405
0.000625131498766
0.000625262862438
0.000625385293877
0.000625524246782
0.000625670099384
0.000625800428156
0.000625939399598
0.000626080565619
0.000626219409916
0.000626358929505
0.000626505758363
0.000626658606621
0.000626820024572
0.00062698101918
0.000616759982973
0.000616916764043
0.000617077062157
0.000617231907268
0.000617387288446
0.000617546710154
0.000617709956878
0.000617871871209
0.000618029418336
0.000618195797871
0.000618358452283
0.000618535656852
0.000618693981541
0.000618861045405
0.00061902026149
0.000619194969715
0.000619360721802
0.000619543047099
0.000619707577895
0.000619886949884
0.000620049816493
0.000620219760542
0.000620389972787
0.000620559093687
0.000620740968807
0.000620913184968
0.000621100317424
0.000621274508187
0.00062145736799
0.000621629359824
0.000621803366984
0.00062196960974
0.000622147189471
0.000622319036441
0.000622507914316
0.000622681200487
0.000622881278305
0.000623047766877
0.000623250888953
0.000623404874522
0.000623604857445
0.000623741934348
0.000624001757139
0.000624170401607
0.000624284358634
0.0006244967928
0.000624658335243
0.000624818879795
0.000624977419946
0.000625133053231
0.000625273546829
0.000625392264644
0.00062552424556
0.000625667976189
0.000625804331588
0.000625945594055
0.000626084306173
0.000626218858837
0.000626356781143
0.000626502265852
0.000626655396193
0.00062681703085
0.000626977052058
0.000616760145622
0.000616916657621
0.000617077120135
0.000617231821212
0.000617387328858
0.000617546638359
0.000617710072184
0.00061787187786
0.000618029367505
0.000618195247378
0.000618358632273
0.000618536465025
0.000618694404118
0.000618860943717
0.000619019969749
0.000619194950477
0.000619360810969
0.00061954315166
0.000619707772165
0.000619886718511
0.000620049799159
0.000620219290155
0.000620390012717
0.000620559163498
0.000620740556441
0.000620913085629
0.000621100466285
0.000621274674173
0.000621457254655
0.000621629482015
0.000621803598959
0.000621969836175
0.000622147459256
0.000622319256513
0.000622507919947
0.000622680958127
0.0006228809054
0.000623047493798
0.000623250881584
0.000623404788546
0.000623606372493
0.000623742721351
0.000624002058442
0.000624170694193
0.000624285700831
0.000624497490769
0.000624659309382
0.000624820149417
0.000624978941806
0.00062511991621
0.000625288438262
0.000625403841446
0.000625531453955
0.000625668926255
0.000625804947196
0.000625944078314
0.000626082073303
0.000626218291319
0.00062635746884
0.000626503124018
0.000626655635732
0.000626815425464
0.000626974211366
0.000616759699922
0.00061691665048
0.000617077107115
0.000617232408819
0.000617387541567
0.000617546597404
0.00061770977804
0.000617871503952
0.000618029168248
0.000618195901581
0.00061835850437
0.000618535742168
0.000618694099346
0.000618861322998
0.000619020211039
0.000619194907843
0.000619360610731
0.000619542816137
0.000619707668921
0.00061988680815
0.000620050025085
0.000620219633495
0.00062039027423
0.000620559337026
0.000620740583563
0.000620913088756
0.000621100297954
0.000621274624723
0.000621457153567
0.000621629173551
0.000621803589327
0.000621969952466
0.000622147591752
0.00062231937898
0.000622507925662
0.000622680972696
0.000622880921905
0.000623047499977
0.000623250841956
0.000623404544885
0.000623607404869
0.000623743157788
0.000624002246277
0.000624170953469
0.00062428707166
0.000624498211662
0.000624660335992
0.000624821489372
0.000624939144981
0.000625138462763
0.000625289237443
0.000625421441386
0.000625539114427
0.000625670850333
0.000625805422122
0.000625941259968
0.000626078974423
0.000626218256525
0.000626361182036
0.000626509209501
0.000626661682003
0.000626819101972
0.00062697444214
0.000616759853849
0.000616916451396
0.000617076874299
0.000617232235852
0.000617387384931
0.00061754651128
0.000617709685812
0.000617871445398
0.000618029215254
0.000618195587949
0.000618358637507
0.000618536260852
0.000618694286293
0.000618861158237
0.000619020054939
0.00061919493915
0.000619360700961
0.000619542956305
0.000619707791341
0.00061988673505
0.00062004996461
0.000620219627567
0.000620390185165
0.000620559301482
0.000620740669917
0.000620913218198
0.000621100137476
0.000621274698296
0.000621456909545
0.000621629350291
0.000621803589056
0.000621969956813
0.000622147465095
0.000622319272421
0.000622507646376
0.000622680828018
0.00062288084784
0.00062304768658
0.000623251109833
0.000623404682763
0.000623608420382
0.000623743477362
0.000624002297536
0.000624171206239
0.000624288641878
0.00062449919564
0.000624661654424
0.000624823071288
0.000624959742863
0.000625135635764
0.000625265970443
0.000625424527266
0.000625549558391
0.000625676757898
0.000625809485667
0.000625944961758
0.000626083917401
0.000626226551352
0.00062637230331
0.000626519274502
0.000626666277287
0.00062681656681
0.000626965930503
0.00061675982586
0.000616916817894
0.000617077374771
0.000617232581005
0.000617387270365
0.000617546538897
0.000617709674958
0.000617871363823
0.000618029217756
0.00061819549202
0.000618358600643
0.00061853607713
0.000618694001768
0.000618861273569
0.000619020162085
0.000619195090695
0.000619360781905
0.000619542847107
0.000619707606574
0.000619886535142
0.000620049895825
0.000620219779058
0.00062039037772
0.000620559347413
0.000620740547581
0.000620913008677
0.000621099549147
0.000621274773851
0.000621457161602
0.000621629651876
0.000621803800635
0.000621970091477
0.00062214744212
0.000622319294897
0.000622507648586
0.00062268092574
0.000622881089594
0.000623048151536
0.000623251137003
0.000623404528429
0.000623608911605
0.000623743424514
0.000624002256455
0.000624171535384
0.000624290496721
0.000624500356961
0.000624663013229
0.000624824510129
0.000624983505049
0.000625123006854
0.000625269304317
0.000625423524496
0.000625574331102
0.00062568694511
0.000625814303432
0.000625947143783
0.000626083244978
0.000626222870108
0.000626366664515
0.00062651335745
0.000626661039295
0.000626812019079
0.000626961418595
0.00061675967894
0.000616916729067
0.000617076828577
0.000617232512729
0.000617387137417
0.000617546646569
0.000617710131447
0.000617871560714
0.000618029365782
0.00061819488903
0.000618358573621
0.000618536447481
0.000618694234795
0.000618861518086
0.000619020244814
0.00061919485382
0.000619360514438
0.00061954264987
0.000619707520861
0.00061988663854
0.000620049735538
0.000620219948066
0.000620390130195
0.000620559304777
0.000620740773003
0.00062091323418
0.000621099487432
0.000621274979629
0.000621456592637
0.00062162937626
0.000621803495936
0.000621970057132
0.00062214736933
0.000622319361661
0.000622507612039
0.000622680824904
0.00062288049318
0.000623047674563
0.00062325050339
0.000623404405504
0.000623610105732
0.000623744309035
0.000624002742174
0.000624171848756
0.000624291958617
0.000624501002238
0.00062466408114
0.000624826034001
0.00062498554419
0.000625141241573
0.000625274460869
0.000625445100462
0.000625586058517
0.000625699420124
0.000625819887874
0.000625948617812
0.000626083115095
0.000626221100616
0.000626362027012
0.000626505845495
0.000626652260988
0.000626803046776
0.000626953038341
0.000616759795016
0.000616916767977
0.000617076808778
0.000617232462498
0.000617387281742
0.000617546375019
0.00061770967561
0.000617871309467
0.000618029461588
0.000618194684026
0.000618358720576
0.00061853663514
0.000618694228525
0.000618861195833
0.000619020038624
0.000619194968148
0.000619360723263
0.00061954277199
0.000619707585758
0.000619886665521
0.000620049751227
0.000620220034559
0.000620390130123
0.00062055919618
0.000620740848502
0.000620913293112
0.000621099041903
0.000621275005424
0.000621456499266
0.000621629885017
0.000621803850764
0.000621970438788
0.000622147416393
0.000622319360711
0.000622507225519
0.000622680687878
0.00062288029568
0.000623048026569
0.000623250608644
0.000623404661359
0.000623610805887
0.000623744504514
0.000624002749826
0.000624172097142
0.000624293875831
0.000624502180838
0.00062466559288
0.000624827743874
0.000624987091699
0.000625117215136
0.000625273148782
0.000625441889698
0.000625592414816
0.000625714844183
0.00062583062188
0.00062595751451
0.000626089912456
0.000626225714243
0.000626365851796
0.000626510885532
0.000626658485509
0.00062680813297
0.000626954017968
0.000616759820268
0.000616916664084
0.000617076594746
0.000617231985763
0.000617387265404
0.000617546464716
0.000617710146768
0.000617871383449
0.000618029559347
0.000618194653875
0.000618358630794
0.000618536079999
0.000618693786543
0.000618861310388
0.000619020089203
0.000619194893082
0.000619360676453
0.000619542631732
0.000619707460039
0.000619886688619
0.000620049694375
0.000620220466841
0.000620390016121
0.000620559245581
0.000620740993952
0.000620913319544
0.000621099086041
0.000621275828185
0.000621456526908
0.000621629734897
0.000621803520965
0.000621970347288
0.000622147251779
0.000622319419111
0.000622507440678
0.000622681002342
0.000622880148846
0.000623047901366
0.000623249655105
0.000623404203689
0.000623611094801
0.000623744786447
0.000624003041507
0.000624172384785
0.000624295682609
0.000624502889473
0.000624666630164
0.000624829125047
0.000624978675468
0.000625153244149
0.000625296620337
0.000625441586297
0.000625583568503
0.000625718480497
0.000625828649557
0.000625952413169
0.000626083124395
0.000626219459985
0.000626362114713
0.000626510356296
0.00062666028407
0.000626810310224
0.000626955065429
0.000616759854334
0.000616916691908
0.000617076604029
0.00061723205436
0.000617387435507
0.000617546463731
0.000617709890156
0.000617871280119
0.000618029743632
0.000618194169266
0.00061835867786
0.000618536614103
0.000618694434839
0.000618861582375
0.000619020153098
0.000619194851919
0.000619360691871
0.000619542640483
0.000619707543112
0.000619886650897
0.000620049517818
0.000620220456801
0.000620389719211
0.000620559073727
0.000620741136103
0.000620913212817
0.000621098733752
0.000621275789233
0.000621456131683
0.000621630055933
0.000621803796471
0.000621970605501
0.000622147077739
0.000622319243568
0.000622507070565
0.000622680840115
0.000622879830544
0.000623048188344
0.000623249524098
0.000623404391925
0.000623611370365
0.00062374483499
0.000624003039098
0.000624172604886
0.000624297915293
0.000624504090653
0.000624668190869
0.000624830864472
0.000624990487917
0.000625135813914
0.000625301735699
0.00062544278297
0.000625582454516
0.000625721388141
0.000625828293727
0.000625951826815
0.000626083384481
0.000626219000391
0.000626359677177
0.000626506540654
0.000626657043084
0.000626808896451
0.00062695633658
0.000616759794694
0.000616916716928
0.000617076860007
0.000617232130309
0.000617387126699
0.000617546374787
0.000617710022538
0.000617871192935
0.000618029717484
0.000618193913517
0.000618358713817
0.000618536300061
0.000618694304588
0.000618861583671
0.000619020142028