/*--------------------------------*- C++ -*----------------------------------*\
  =========                 |
  \\      /  F ield         | OpenFOAM: The Open Source CFD Toolbox
   \\    /   O peration     | Website:  https://openfoam.org
    \\  /    A nd           | Version:  6
     \\/     M anipulation  |
\*---------------------------------------------------------------------------*/
FoamFile
{
    version     2.0;
    format      ascii;
    class       volScalarField;
    location    "0.0002";
    object      O3;
}
// * * * * * * * * * * * * * * * * * * * * * * * * * * * * * * * * * * * * * //

dimensions      [0 0 0 0 0 0 0];

internalField   nonuniform List<scalar> 
208908
(
5.37476537103e-12
5.39264429083e-12
5.42292400717e-12
5.45863416566e-12
5.49643760871e-12
5.53504496125e-12
5.57405213661e-12
5.61331550182e-12
5.65285653106e-12
5.69266584974e-12
5.73275371666e-12
5.77311050817e-12
5.81376971096e-12
5.85471186123e-12
5.89598485887e-12
5.93755254682e-12
5.97944675601e-12
6.02164561221e-12
6.06416040685e-12
6.10700179209e-12
6.15018459818e-12
6.19368749884e-12
6.2375301529e-12
6.28173068087e-12
6.32618432577e-12
6.37116051885e-12
6.41632357955e-12
6.46185212067e-12
6.50771116636e-12
6.55397493997e-12
6.60061936182e-12
6.64764372276e-12
6.69489145521e-12
6.74258101345e-12
6.79071083275e-12
6.83915711243e-12
6.88793012014e-12
6.93729665294e-12
6.98685147572e-12
7.0368699381e-12
7.08710082629e-12
7.13791028863e-12
7.18905023645e-12
7.24066253137e-12
7.29254964829e-12
7.34508748742e-12
7.39785963838e-12
7.45106186485e-12
7.50443758745e-12
7.5584647864e-12
7.61302497086e-12
7.66812642481e-12
7.72338311393e-12
7.77877460464e-12
7.83515242848e-12
7.89166628957e-12
7.94907839152e-12
8.00643067612e-12
8.06496920146e-12
8.12247189851e-12
8.18261117543e-12
8.2414060333e-12
5.37472991598e-12
5.39260884255e-12
5.42288822493e-12
5.45859818842e-12
5.496401075e-12
5.53500841895e-12
5.57401690209e-12
5.6132804393e-12
5.65282094689e-12
5.69263050578e-12
5.73271865753e-12
5.77307661575e-12
5.81373591438e-12
5.85467805784e-12
5.89595218953e-12
5.93751984474e-12
5.97941429553e-12
6.02161361686e-12
6.06412828354e-12
6.10697073468e-12
6.15015365455e-12
6.19365676768e-12
6.23749722326e-12
6.28170765926e-12
6.32617747072e-12
6.37112594034e-12
6.41626063961e-12
6.46180641646e-12
6.50768979109e-12
6.55396358985e-12
6.60052785073e-12
6.64761957672e-12
6.69486890208e-12
6.74259336491e-12
6.79069712329e-12
6.83912171223e-12
6.88790909808e-12
6.93724925728e-12
6.98682508941e-12
7.03683241475e-12
7.08708203167e-12
7.13786942978e-12
7.18901432003e-12
7.24066569143e-12
7.29253043191e-12
7.34505347293e-12
7.39785509333e-12
7.45102883803e-12
7.50441477171e-12
7.55842986773e-12
7.61300470585e-12
7.66809218178e-12
7.72335977888e-12
7.77872884749e-12
7.8351229965e-12
7.89159653473e-12
7.94899994084e-12
8.00641399932e-12
8.06499580313e-12
8.12244081493e-12
8.18257578589e-12
8.24133016363e-12
5.37469627592e-12
5.39257521773e-12
5.42285420015e-12
5.45856398165e-12
5.49636604602e-12
5.53497328614e-12
5.57398284893e-12
5.61324682429e-12
5.65278657961e-12
5.69259659758e-12
5.73268446644e-12
5.77304395128e-12
5.81370318516e-12
5.85464535437e-12
5.89592024308e-12
5.93748829754e-12
5.9793823974e-12
6.02158305531e-12
6.06409768879e-12
6.10694049439e-12
6.15012440532e-12
6.19362542503e-12
6.23747275216e-12
6.28167221707e-12
6.32611844741e-12
6.37109741505e-12
6.41622701346e-12
6.46178653043e-12
6.50768876302e-12
6.55392000993e-12
6.60052285693e-12
6.64756728319e-12
6.69485482353e-12
6.74254154558e-12
6.7906574055e-12
6.8390981569e-12
6.88787467981e-12
6.93724087403e-12
6.98685259007e-12
7.03679083771e-12
7.08697457421e-12
7.13784539495e-12
7.18902718012e-12
7.24063205274e-12
7.29246230607e-12
7.3450125035e-12
7.3977938273e-12
7.45100023591e-12
7.50446492966e-12
7.55842205251e-12
7.61295610906e-12
7.66804885057e-12
7.72331297402e-12
7.77872436462e-12
7.83510311487e-12
7.89159519229e-12
7.94898175899e-12
8.00638108823e-12
8.06493030481e-12
8.1224043511e-12
8.18258802902e-12
8.24129986264e-12
5.37466463533e-12
5.39254358058e-12
5.4228222123e-12
5.45853169112e-12
5.49633266756e-12
5.53493968834e-12
5.57395009052e-12
5.61321467117e-12
5.6527535514e-12
5.69256391034e-12
5.73265156693e-12
5.77301223982e-12
5.81367133337e-12
5.85461410969e-12
5.89588875818e-12
5.93745745458e-12
5.97935212298e-12
6.02155301764e-12
6.06406839631e-12
6.10691209961e-12
6.15009399963e-12
6.19360256194e-12
6.23742785502e-12
6.28167335169e-12
6.32617924539e-12
6.37106345508e-12
6.41613747836e-12
6.4617106525e-12
6.50766585892e-12
6.55390974738e-12
6.60046519352e-12
6.64752728278e-12
6.69481220158e-12
6.74252122604e-12
6.79067751263e-12
6.83907662076e-12
6.88786023261e-12
6.93717468176e-12
6.98674405793e-12
7.03675897088e-12
7.08701978245e-12
7.137813543e-12
7.18895027501e-12
7.24057392349e-12
7.29244164615e-12
7.34501414783e-12
7.39780535134e-12
7.45100046448e-12
7.50435606842e-12
7.55840657021e-12
7.61295899715e-12
7.66803190328e-12
7.72330421702e-12
7.77867242707e-12
7.83506505021e-12
7.89156080403e-12
7.94899477901e-12
8.00638394188e-12
8.06487708346e-12
8.1223793625e-12
8.18246220181e-12
8.24130200912e-12
5.37463501025e-12
5.39251393592e-12
5.42279225029e-12
5.458501301e-12
5.49630098036e-12
5.53490769956e-12
5.57391873211e-12
5.61318389227e-12
5.6527218357e-12
5.6925327402e-12
5.73261930731e-12
5.77298180995e-12
5.81364044833e-12
5.85458318177e-12
5.89585849178e-12
5.93742765375e-12
5.97932161907e-12
6.0215251285e-12
6.0640394553e-12
6.10688393917e-12
6.15006772938e-12
6.19357095618e-12
6.23740803851e-12
6.28163534541e-12
6.32612903999e-12
6.37104714214e-12
6.41614454207e-12
6.46169560943e-12
6.50762362682e-12
6.55388625383e-12
6.60047644869e-12
6.64751266844e-12
6.69477883282e-12
6.74247314495e-12
6.79060416518e-12
6.83900946802e-12
6.8877903022e-12
6.93714096589e-12
6.98674892029e-12
7.03673708397e-12
7.0869632234e-12
7.13780916933e-12
7.18891440748e-12
7.24053300032e-12
7.2924178586e-12
7.34498677059e-12
7.39778809003e-12
7.45095401974e-12
7.50435702426e-12
7.55839034035e-12
7.61287659436e-12
7.66800223361e-12
7.72325040328e-12
7.77868257288e-12
7.83505667009e-12
7.89151222874e-12
7.94894265994e-12
8.00627722935e-12
8.06486598206e-12
8.12237444562e-12
8.18252771462e-12
8.24128109554e-12
5.37460715152e-12
5.39248605382e-12
5.42276402282e-12
5.45847265153e-12
5.49627088355e-12
5.53487706832e-12
5.57388884353e-12
5.61315400359e-12
5.65269164276e-12
5.69250211832e-12
5.73258835238e-12
5.77295175448e-12
5.81361033214e-12
5.85455301087e-12
5.89582874812e-12
5.9373977726e-12
5.97929279302e-12
6.0214970576e-12
6.06401169622e-12
6.10685625122e-12
6.15004106592e-12
6.19354128663e-12
6.2373877207e-12
6.28159379322e-12
6.32607353628e-12
6.37100404364e-12
6.41614439893e-12
6.46167561576e-12
6.50758635508e-12
6.5538412089e-12
6.60045391249e-12
6.64748927497e-12
6.69476809539e-12
6.74239457023e-12
6.79058569624e-12
6.8390298398e-12
6.88779128596e-12
6.93712928737e-12
6.98669926914e-12
7.03669377318e-12
7.08696201638e-12
7.13778164952e-12
7.18888427495e-12
7.24048976278e-12
7.29239941856e-12
7.34497004222e-12
7.39774060865e-12
7.45090967974e-12
7.50430276024e-12
7.55835419163e-12
7.61289056256e-12
7.66796985758e-12
7.72320913236e-12
7.77865054032e-12
7.83498697067e-12
7.89150536972e-12
7.94888751471e-12
8.00631170822e-12
8.06481780694e-12
8.1223316032e-12
8.18247450952e-12
8.2412253359e-12
5.37458073553e-12
5.39245955924e-12
5.42273729674e-12
5.45844540707e-12
5.49624217801e-12
5.53484788486e-12
5.57385986893e-12
5.61312534972e-12
5.65266202773e-12
5.69247229592e-12
5.73255812956e-12
5.77292222951e-12
5.81358044178e-12
5.85452362879e-12
5.89579877062e-12
5.93736883626e-12
5.97926409348e-12
6.02146936021e-12
6.0639841145e-12
6.10682882257e-12
6.15001455609e-12
6.19351231734e-12
6.23736331197e-12
6.28155923231e-12
6.32601996631e-12
6.37097851934e-12
6.41613125828e-12
6.46166948726e-12
6.50756296844e-12
6.55376994162e-12
6.60037121412e-12
6.647478687e-12
6.69473908332e-12
6.742423042e-12
6.79056368385e-12
6.83895284643e-12
6.88774304263e-12
6.93706099615e-12
6.98667200513e-12
7.03666882486e-12
7.0869538359e-12
7.13773782757e-12
7.18888720347e-12
7.24048342996e-12
7.29236611533e-12
7.34493263643e-12
7.39771709723e-12
7.45090164476e-12
7.50431536895e-12
7.55831283757e-12
7.61282626165e-12
7.66794137339e-12
7.72322926204e-12
7.77862304799e-12
7.8349564732e-12
7.89147362237e-12
7.94889117705e-12
8.00625322368e-12
8.06477468682e-12
8.12230523093e-12
8.18238028842e-12
8.24121812641e-12
5.3745553699e-12
5.3924341329e-12
5.42271150951e-12
5.45841929121e-12
5.4962146958e-12
5.53481981793e-12
5.57383173885e-12
5.61309737354e-12
5.65263278369e-12
5.69244321768e-12
5.73252832661e-12
5.77289281696e-12
5.81355124393e-12
5.85449376487e-12
5.89576994387e-12
5.9373394133e-12
5.97923598125e-12
6.02144150145e-12
6.0639569324e-12
6.10680117849e-12
6.14998639786e-12
6.19348496987e-12
6.23733091734e-12
6.28153921374e-12
6.32600460062e-12
6.37096142905e-12
6.41609211382e-12
6.46163520142e-12
6.50751539318e-12
6.55375719158e-12
6.60038389105e-12
6.64743931175e-12
6.69468560348e-12
6.74237726838e-12
6.79051289216e-12
6.83893745908e-12
6.88773258315e-12
6.93702638641e-12
6.98665246365e-12
7.03667183109e-12
7.08689223077e-12
7.13768904579e-12
7.18882480831e-12
7.24043615603e-12
7.29234350154e-12
7.34489555567e-12
7.39764764347e-12
7.45084952271e-12
7.50428378736e-12
7.55830080698e-12
7.61283712622e-12
7.66790710499e-12
7.72321942365e-12
7.77857952555e-12
7.83495737444e-12
7.89145780935e-12
7.94883024064e-12
8.00620163426e-12
8.0648443501e-12
8.12226770208e-12
8.18233277104e-12
8.24117160251e-12
5.37453097617e-12
5.39240966726e-12
5.42268665319e-12
5.4583942007e-12
5.49618834173e-12
5.53479289461e-12
5.57380436218e-12
5.61306979736e-12
5.65260430295e-12
5.6924144109e-12
5.73249880776e-12
5.77286417603e-12
5.81352160018e-12
5.85446440187e-12
5.89574086575e-12
5.93731083626e-12
5.97920730397e-12
6.02141404494e-12
6.06392818196e-12
6.10677333172e-12
6.1499582268e-12
6.19345425165e-12
6.23730393219e-12
6.28150289875e-12
6.3259685334e-12
6.37090973307e-12
6.41604955548e-12
6.46160080606e-12
6.50750550631e-12
6.5537419083e-12
6.6003462107e-12
6.64740730632e-12
6.6946707991e-12
6.74234240047e-12
6.79049708922e-12
6.83892545325e-12
6.88769251339e-12
6.93701068424e-12
6.98656634047e-12
7.0366273038e-12
7.0869003758e-12
7.13769634343e-12
7.18880028388e-12
7.24040751499e-12
7.29226627427e-12
7.34486480006e-12
7.39765032256e-12
7.45080879543e-12
7.50425956923e-12
7.55828431043e-12
7.61280138929e-12
7.66788053205e-12
7.72316412613e-12
7.7785713001e-12
7.83491112738e-12
7.89140125274e-12
7.9488298528e-12
8.00619111646e-12
8.06472715439e-12
8.12223113011e-12
8.18235740266e-12
8.24119377998e-12
5.37450729695e-12
5.39238592412e-12
5.42266240329e-12
5.45836992468e-12
5.4961628818e-12
5.53476682733e-12
5.57377746248e-12
5.61304281617e-12
5.6525761116e-12
5.69238648507e-12
5.73246954892e-12
5.77283568725e-12
5.81349198053e-12
5.85443574429e-12
5.89571195187e-12
5.93728163248e-12
5.97917941174e-12
6.02138509846e-12
6.06389961926e-12
6.10674428252e-12
6.14992720062e-12
6.19342610879e-12
6.2372681365e-12
6.2814822865e-12
6.32595460596e-12
6.37088364566e-12
6.41601851353e-12
6.46154385186e-12
6.50747610988e-12
6.55372468509e-12
6.60028740093e-12
6.64736168928e-12
6.6946311392e-12
6.74232274602e-12
6.79049527493e-12
6.83887271565e-12
6.88764526172e-12
6.93696570677e-12
6.98659987699e-12
7.03659261166e-12
7.08685214999e-12
7.13766382418e-12
7.18875102843e-12
7.24035914969e-12
7.29226678918e-12
7.34483424053e-12
7.39762185887e-12
7.45081022739e-12
7.5042114493e-12
7.55823850057e-12
7.61275762763e-12
7.66785400194e-12
7.7231649782e-12
7.778516751e-12
7.83490996077e-12
7.89138385759e-12
7.94878948356e-12
8.00616351366e-12
8.06468534349e-12
8.12221288309e-12
8.18233550712e-12
8.2411372051e-12
5.37448448671e-12
5.39236300242e-12
5.42263903519e-12
5.45834654219e-12
5.49613830683e-12
5.53474175131e-12
5.57375140381e-12
5.61301665743e-12
5.65254899894e-12
5.69235922487e-12
5.73244099642e-12
5.77280749882e-12
5.81346332741e-12
5.85440694073e-12
5.89568352819e-12
5.93725333912e-12
5.97915003358e-12
6.02135648085e-12
6.06386961071e-12
6.10671400984e-12
6.14989645486e-12
6.19339424559e-12
6.23723913873e-12
6.28144484479e-12
6.32591414216e-12
6.37084698138e-12
6.41598981082e-12
6.46152969696e-12
6.50743756354e-12
6.55367947814e-12
6.60029614189e-12
6.64732989644e-12
6.69461056392e-12
6.7422835708e-12
6.79040978254e-12
6.83885275135e-12
6.88763078823e-12
6.93693102208e-12
6.98653733238e-12
7.03656969252e-12
7.0868037156e-12
7.1376261647e-12
7.18878941891e-12
7.24037111428e-12
7.29219939453e-12
7.34474731966e-12
7.39757011472e-12
7.45077806781e-12
7.50415869508e-12
7.55819119168e-12
7.61276116452e-12
7.6678572348e-12
7.72312889583e-12
7.77850360032e-12
7.83490761989e-12
7.89136199319e-12
7.94877901192e-12
8.00613294229e-12
8.06467729022e-12
8.12217163798e-12
8.18233827995e-12
8.24106511715e-12
5.37446264292e-12
5.39234106483e-12
5.42261646544e-12
5.45832415787e-12
5.49611466806e-12
5.53471760739e-12
5.57372635119e-12
5.61299180048e-12
5.6525233383e-12
5.6923327083e-12
5.73241380387e-12
5.77278021719e-12
5.81343510167e-12
5.8543799641e-12
5.89565468948e-12
5.93722561404e-12
5.979120822e-12
6.02132680168e-12
6.06383869917e-12
6.10668383401e-12
6.1498655618e-12
6.19336195849e-12
6.23720615513e-12
6.28141549498e-12
6.32591010486e-12
6.37082603154e-12
6.41597427962e-12
6.46149058252e-12
6.50739005028e-12
6.55364157171e-12
6.60024262902e-12
6.64730305806e-12
6.69458471076e-12
6.74223966274e-12
6.79037706252e-12
6.83882637083e-12
6.88760890565e-12
6.93689880482e-12
6.98651683011e-12
7.03653023996e-12
7.08676363044e-12
7.13757977398e-12
7.18874682179e-12
7.24033389541e-12
7.2921844267e-12
7.34477471653e-12
7.3976143304e-12
7.45072679138e-12
7.50413851433e-12
7.55818971233e-12
7.61271209337e-12
7.66778655877e-12
7.72307642347e-12
7.77848742018e-12
7.83482868732e-12
7.89134701849e-12
7.94874043556e-12
8.00607016048e-12
8.06465835317e-12
8.12215384184e-12
8.18228565008e-12
8.24110473396e-12
5.37444206373e-12
5.39232036561e-12
5.4225950478e-12
5.45830299677e-12
5.49609214281e-12
5.53469483314e-12
5.57370278452e-12
5.61296887147e-12
5.65249919555e-12
5.69230826392e-12
5.73238748401e-12
5.77275449823e-12
5.81340859708e-12
5.85435393442e-12
5.89562708085e-12
5.93719785905e-12
5.97909198992e-12
6.02129701364e-12
6.06380785486e-12
6.10665390678e-12
6.1498347736e-12
6.19332903955e-12
6.23718065666e-12
6.2813690136e-12
6.32583180333e-12
6.37078665748e-12
6.41595987966e-12
6.46150292618e-12
6.50733298961e-12
6.55361715198e-12
6.60024065181e-12
6.64729584513e-12
6.69453994201e-12
6.74220396135e-12
6.79035732655e-12
6.83877775804e-12
6.88758809045e-12
6.93689375228e-12
6.98645757431e-12
7.03648752653e-12
7.08674138175e-12
7.13758884436e-12
7.18870638905e-12
7.24027745406e-12
7.29215126845e-12
7.34474668885e-12
7.39753096487e-12
7.45070585316e-12
7.50409228565e-12
7.55815613515e-12
7.61268723659e-12
7.6677718554e-12
7.72305800887e-12
7.77842513823e-12
7.834833791e-12
7.89129672788e-12
7.94871552386e-12
8.00607293412e-12
8.06465828764e-12
8.12213914635e-12
8.18221566159e-12
8.241077344e-12
5.37442313136e-12
5.39230127544e-12
5.42257518566e-12
5.4582834668e-12
5.49607122767e-12
5.53467378729e-12
5.57368123017e-12
5.61294807206e-12
5.65247739698e-12
5.69228541294e-12
5.73236346387e-12
5.7727306842e-12
5.81338353506e-12
5.8543294829e-12
5.89560095549e-12
5.93717090461e-12
5.97906328548e-12
6.02126794849e-12
6.06377797767e-12
6.1066254956e-12
6.14980312433e-12
6.19330376946e-12
6.2371327367e-12
6.28136758057e-12
6.32585566475e-12
6.3707729006e-12
6.41587512502e-12
6.46140779913e-12
6.50733560889e-12
6.55361618574e-12
6.60020212341e-12
6.64722050553e-12
6.69450565774e-12
6.74220682434e-12
6.79033542218e-12
6.83873172846e-12
6.8875608091e-12
6.93685075391e-12
6.98648273123e-12
7.03648046537e-12
7.08672023786e-12
7.1375167593e-12
7.1886530746e-12
7.24027443755e-12
7.29212778963e-12
7.34467817563e-12
7.39751233493e-12
7.45068216706e-12
7.50404441421e-12
7.55812146458e-12
7.61266725298e-12
7.66774296024e-12
7.72300724772e-12
7.77840355555e-12
7.83482301837e-12
7.89127887088e-12
7.94869352903e-12
8.00605389685e-12
8.06457902097e-12
8.1221039512e-12
8.1822455212e-12
8.24102917865e-12
5.37440608556e-12
5.39228407373e-12
5.42255714801e-12
5.45826584395e-12
5.4960523193e-12
5.53465481078e-12
5.57366155823e-12
5.61293010191e-12
5.65245760659e-12
5.6922651728e-12
5.73234149942e-12
5.77270861056e-12
5.81336063884e-12
5.85430711492e-12
5.89557596039e-12
5.93714555932e-12
5.97903585173e-12
6.02124024427e-12
6.06375009698e-12
6.10659797397e-12
6.1497747763e-12
6.1932720568e-12
6.23711212432e-12
6.2813217069e-12
6.32579220725e-12
6.37074388832e-12
6.41587337634e-12
6.46141932779e-12
6.50732966984e-12
6.55352164728e-12
6.60012180589e-12
6.64719769222e-12
6.69449698975e-12
6.74217456631e-12
6.79032358051e-12
6.83872534038e-12
6.88751563505e-12
6.93684185089e-12
6.98645938568e-12
7.03642659867e-12
7.08667092897e-12
7.13747545754e-12
7.18859829498e-12
7.24025224874e-12
7.29215148255e-12
7.34467211737e-12
7.3974743843e-12
7.45064530293e-12
7.50407314343e-12
7.55806322562e-12
7.61260181587e-12
7.66772782724e-12
7.72303297267e-12
7.77839017153e-12
7.83481748341e-12
7.89122353582e-12
7.94863676182e-12
8.00601296156e-12
8.06456553383e-12
8.12210390506e-12
8.18217479149e-12
8.24104824368e-12
8.30083685672e-12
8.36079414814e-12
8.42212743982e-12
8.48357074138e-12
8.5456314043e-12
8.60755952237e-12
8.67033779498e-12
8.73344817406e-12
8.79779066718e-12
8.86207892564e-12
8.92670654421e-12
8.99263993323e-12
9.05762513375e-12
9.1240548121e-12
9.19135581217e-12
9.25862092598e-12
9.32603843911e-12
9.39527877965e-12
9.46343264462e-12
9.53408938494e-12
9.60335001912e-12
9.67444236235e-12
9.74516226925e-12
9.81794733938e-12
9.88977398448e-12
9.96266884849e-12
1.00364086271e-11
1.01102307339e-11
1.0184999776e-11
1.02612696338e-11
1.03362075303e-11
1.04144203514e-11
1.04901353939e-11
1.05695191731e-11
1.06462015411e-11
1.072609045e-11
1.08063434462e-11
1.08864137264e-11
1.09698683851e-11
1.10508228225e-11
1.11360257531e-11
1.121099576e-11
1.13414425943e-11
1.12740448716e-11
1.10981063059e-11
1.08330787337e-11
1.07099758008e-11
1.06465860559e-11
1.06285101442e-11
1.06413014862e-11
1.0668149011e-11
1.07031933658e-11
1.07421160859e-11
1.07818148398e-11
1.08206851109e-11
1.08637320717e-11
1.09115381339e-11
1.09654711683e-11
1.1027267819e-11
1.10986596916e-11
1.11766819488e-11
1.12622925563e-11
1.13532328021e-11
8.30075044171e-12
8.36076788929e-12
8.42212850437e-12
8.48355647246e-12
8.54558838334e-12
8.60751156435e-12
8.6703500872e-12
8.73344656079e-12
8.79774445837e-12
8.8620335598e-12
8.92671591983e-12
8.99264560757e-12
9.05759259397e-12
9.12410534169e-12
9.1913435691e-12
9.25860703128e-12
9.32602845969e-12
9.39525302094e-12
9.46339054264e-12
9.53407150523e-12
9.60324120575e-12
9.67441391855e-12
9.7451140848e-12
9.81793199892e-12
9.88974596358e-12
9.96264169282e-12
1.00363688878e-11
1.01102254943e-11
1.01849709522e-11
1.02612761283e-11
1.03362233642e-11
1.04144291944e-11
1.04900983873e-11
1.05694997431e-11
1.06461781769e-11
1.07261305372e-11
1.08063446327e-11
1.08864639157e-11
1.096987574e-11
1.10509314057e-11
1.11362353204e-11
1.1211432055e-11
1.13417157282e-11
1.12800692301e-11
1.11078957625e-11
1.08476070633e-11
1.07249208915e-11
1.06612120355e-11
1.06416175953e-11
1.06519003226e-11
1.06759608845e-11
1.07046066516e-11
1.07371738565e-11
1.07711315377e-11
1.08060897165e-11
1.08470327635e-11
1.0894471382e-11
1.0949132309e-11
1.10125543769e-11
1.10853651858e-11
1.11651039925e-11
1.12521774892e-11
1.13446556518e-11
8.30073541297e-12
8.36073634961e-12
8.42205151616e-12
8.48349524561e-12
8.54557218119e-12
8.6074889846e-12
8.67034349555e-12
8.73341466776e-12
8.79772922906e-12
8.86205097922e-12
8.92670239032e-12
8.99256344067e-12
9.0575457234e-12
9.12409782447e-12
9.19136120367e-12
9.25859772664e-12
9.32599476046e-12
9.3952164644e-12
9.46330174132e-12
9.53403043179e-12
9.60313311908e-12
9.6743959612e-12
9.7451043399e-12
9.8179336539e-12
9.88973433126e-12
9.96258148626e-12
1.00363460726e-11
1.01102562805e-11
1.01849499318e-11
1.02613036278e-11
1.03362286386e-11
1.04144470697e-11
1.04900751339e-11
1.05694737826e-11
1.06461701776e-11
1.07261610711e-11
1.08063489375e-11
1.08865309873e-11
1.09698495813e-11
1.10510500602e-11
1.11364351558e-11
1.12119067637e-11
1.13419617569e-11
1.12858295764e-11
1.11177147684e-11
1.08627774558e-11
1.0740701007e-11
1.06766885611e-11
1.06552640503e-11
1.06623170179e-11
1.06832592116e-11
1.07041769636e-11
1.07300822692e-11
1.07595023256e-11
1.07923060098e-11
1.08317253167e-11
1.08785063594e-11
1.0933645149e-11
1.09988691105e-11
1.10731192832e-11
1.11545271544e-11
1.12432780418e-11
1.13369341576e-11
8.30069922886e-12
8.36069928755e-12
8.42204937198e-12
8.48349055898e-12
8.5455131337e-12
8.60743344621e-12
8.6703355095e-12
8.73338112343e-12
8.79772787875e-12
8.86195576888e-12
8.9266733528e-12
8.99260489228e-12
9.05754110528e-12
9.12404427177e-12
9.1913639289e-12
9.25856835413e-12
9.32594311742e-12
9.39516500125e-12
9.46324793663e-12
9.53400278213e-12
9.60307282141e-12
9.67436369889e-12
9.74508705047e-12
9.81791133709e-12
9.88971712499e-12
9.96256841776e-12
1.00363322575e-11
1.0110271349e-11
1.01849108313e-11
1.02612994497e-11
1.03362290477e-11
1.0414433577e-11
1.04900502274e-11
1.05694695889e-11
1.06461784381e-11
1.07262121628e-11
1.08063238131e-11
1.08865937298e-11
1.09698223914e-11
1.10511207993e-11
1.11366414806e-11
1.12125142347e-11
1.13422037138e-11
1.12912754173e-11
1.11275051205e-11
1.08785068416e-11
1.07572459368e-11
1.06929000639e-11
1.06693646851e-11
1.0671241751e-11
1.06890013842e-11
1.07033006442e-11
1.0722873182e-11
1.0747387053e-11
1.07780599013e-11
1.08165519413e-11
1.08636207181e-11
1.09202010202e-11
1.09867672321e-11
1.10622449639e-11
1.1145094544e-11
1.12349572913e-11
1.13296695499e-11
8.30072854036e-12
8.36068354277e-12
8.42197873927e-12
8.48341630017e-12
8.54547490689e-12
8.6074149954e-12
8.67029790779e-12
8.73333922506e-12
8.79769733771e-12
8.86199503795e-12
8.92664764574e-12
8.99249518691e-12
9.05746522299e-12
9.12403694242e-12
9.19134780696e-12
9.2585439685e-12
9.32597276668e-12
9.39514465548e-12
9.46321982833e-12
9.53396723641e-12
9.60303101024e-12
9.674343967e-12
9.7450615976e-12
9.81788681404e-12
9.88969243741e-12
9.96255177744e-12
1.00363000134e-11
1.01102629771e-11
1.01848974955e-11
1.02612278833e-11
1.03362441603e-11
1.04144466573e-11
1.04900521803e-11
1.05694665171e-11
1.064615658e-11
1.07262184602e-11
1.08063014797e-11
1.08866648642e-11
1.09698041371e-11
1.1051196953e-11
1.11368205202e-11
1.12131939635e-11
1.13423525814e-11
1.12963296319e-11
1.11372076632e-11
1.08947797494e-11
1.07746172736e-11
1.07097863536e-11
1.06834125476e-11
1.06822751896e-11
1.06914127449e-11
1.07018355949e-11
1.071545524e-11
1.07357726771e-11
1.07642823184e-11
1.08019685015e-11
1.08497284656e-11
1.09078111295e-11
1.09757543311e-11
1.1052403861e-11
1.11365373644e-11
1.12275326248e-11
1.13228559308e-11
8.30068998847e-12
8.36063924859e-12
8.4219820372e-12
8.48338982279e-12
8.54545493458e-12
8.60737543941e-12
8.67026787577e-12
8.73331314297e-12
8.79766650783e-12
8.86192110788e-12
8.92660905519e-12
8.99251260642e-12
9.05748696998e-12
9.12399191431e-12
9.19132244544e-12
9.25851166901e-12
9.32593659326e-12
9.39509687215e-12
9.46319296643e-12
9.53392433999e-12
9.60302976239e-12
9.67431295494e-12
9.74504619831e-12
9.81785791197e-12
9.88968154601e-12
9.96253107691e-12
1.00362452259e-11
1.01102426997e-11
1.01848295688e-11
1.02613044417e-11
1.03362411863e-11
1.04144090381e-11
1.04900357812e-11
1.05694761913e-11
1.06461411431e-11
1.07262279761e-11
1.08062552419e-11
1.08866929436e-11
1.09697870602e-11
1.10512195842e-11
1.11369974941e-11
1.12139520363e-11
1.1342369248e-11
1.13009507054e-11
1.11467606274e-11
1.09115347703e-11
1.07927176145e-11
1.07272576569e-11
1.06985246954e-11
1.06911553896e-11
1.06928742573e-11
1.06986703756e-11
1.07083899398e-11
1.07249018164e-11
1.07513167745e-11
1.07886018253e-11
1.08368314908e-11
1.08959388352e-11
1.09651521663e-11
1.104308453e-11
1.11287692204e-11
1.12211140305e-11
1.13172656457e-11
8.30067379588e-12
8.36061507366e-12
8.42198120197e-12
8.48337123807e-12
8.5454523462e-12
8.60735224659e-12
8.67021619948e-12
8.73323363535e-12
8.79761837659e-12
8.86188055131e-12
8.92657635054e-12
8.99247816013e-12
9.05744507794e-12
9.12398637264e-12
9.19129023584e-12
9.25848753812e-12
9.32591530253e-12
9.39506190703e-12
9.46318657807e-12
9.5338868594e-12
9.60301179821e-12
9.67429573917e-12
9.74503778506e-12
9.81782491344e-12
9.8896718787e-12
9.96252494249e-12
1.00361574914e-11
1.01102053188e-11
1.01847971218e-11
1.02612800954e-11
1.03362644363e-11
1.04144256911e-11
1.04900383087e-11
1.05694585256e-11
1.06461163135e-11
1.07261985959e-11
1.08062268843e-11
1.08867378831e-11
1.09697369901e-11
1.10512528362e-11
1.11371572563e-11
1.1214819477e-11
1.13422882781e-11
1.1305130977e-11
1.11561385046e-11
1.09287429055e-11
1.08115652785e-11
1.07453487361e-11
1.0712532011e-11
1.06999796676e-11
1.06952450854e-11
1.06941353717e-11
1.0701681435e-11
1.07142211144e-11
1.07385835065e-11
1.07756765811e-11
1.08249312854e-11
1.0885637499e-11
1.09565114298e-11
1.10358564996e-11
1.11225288517e-11
1.1215631652e-11
1.13118614951e-11
8.30065862946e-12
8.36059310101e-12
8.42188321032e-12
8.48334955814e-12
8.54547007988e-12
8.60729905216e-12
8.67023248968e-12
8.73319012149e-12
8.79757091141e-12
8.86177819521e-12
8.92651888922e-12
8.99248062276e-12
9.05743993978e-12
9.12396435617e-12
9.19125291667e-12
9.25842973096e-12
9.32590752299e-12
9.39503087895e-12
9.46317293998e-12
9.53387702709e-12
9.60304159535e-12
9.67428313827e-12
9.74499274485e-12
9.81776951614e-12
9.88963928702e-12
9.96248458817e-12
1.00361223588e-11
1.01102273593e-11
1.01847248909e-11
1.02612790175e-11
1.03362501733e-11
1.041439866e-11
1.04900307917e-11
1.05694420411e-11
1.06461270031e-11
1.07262158621e-11
1.08061942389e-11
1.0886816448e-11
1.09696728685e-11
1.10512183445e-11
1.11373019894e-11
1.12157441859e-11
1.13421570612e-11
1.13088718103e-11
1.11653352383e-11
1.09462955968e-11
1.0831007596e-11
1.07639920548e-11
1.0727077653e-11
1.07074442632e-11
1.06962327147e-11
1.06883252688e-11
1.06920156586e-11
1.07038187036e-11
1.07271821078e-11
1.07642958636e-11
1.08145189062e-11
1.08767394565e-11
1.09492078957e-11
1.1029810758e-11
1.11173364896e-11
1.12109901924e-11
1.13076594493e-11
8.30060190476e-12
8.36054690532e-12
8.42186292953e-12
8.48329472083e-12
8.54540843561e-12
8.60727436939e-12
8.67019877236e-12
8.73316762264e-12
8.7975338282e-12
8.86171715291e-12
8.92650822491e-12
8.99249419032e-12
9.05746732283e-12
9.12392066856e-12
9.19123832746e-12
9.25840800886e-12
9.32585184264e-12
9.39497998338e-12
9.46316327909e-12
9.53383733188e-12
9.60302114895e-12
9.67424536945e-12
9.74497380826e-12
9.81776312502e-12
9.88964077573e-12
9.9624647596e-12
1.00360402828e-11
1.0110186774e-11
1.01846460739e-11
1.02613200236e-11
1.03362448112e-11
1.04143531084e-11
1.0490019708e-11
1.05694480056e-11
1.06461144151e-11
1.07262221943e-11
1.08061392959e-11
1.08868096259e-11
1.09696030096e-11
1.10512044584e-11
1.11374472484e-11
1.12168001022e-11
1.13417987075e-11
1.13119933101e-11
1.11741648817e-11
1.09640892266e-11
1.08509184434e-11
1.07831397893e-11
1.07415788581e-11
1.0717356882e-11
1.06967561098e-11
1.06828541564e-11
1.06823737237e-11
1.06937766433e-11
1.07161592615e-11
1.07536021851e-11
1.08049235531e-11
1.08685031177e-11
1.09423208258e-11
1.10240952299e-11
1.11122494223e-11
1.120646518e-11
1.1303277241e-11
8.30056664793e-12
8.36052712382e-12
8.42183332854e-12
8.48326151847e-12
8.54539068412e-12
8.60725643183e-12
8.67019644146e-12
8.73312389842e-12
8.79750624059e-12
8.86165931957e-12
8.9264759997e-12
8.99244848122e-12
9.05742485506e-12
9.12393096335e-12
9.19121188168e-12
9.25836396192e-12
9.32583311417e-12
9.39494279388e-12
9.46316679853e-12
9.53380999601e-12
9.60303655209e-12
9.67423335896e-12
9.7449408066e-12
9.8177124766e-12
9.88958152791e-12
9.96245381271e-12
1.0035987813e-11
1.01102362757e-11
1.01845814875e-11
1.02612955503e-11
1.0336204188e-11
1.04143451044e-11
1.04900299983e-11
1.05694210574e-11
1.06460996954e-11
1.0726189583e-11
1.0806103897e-11
1.08868694579e-11
1.09694903266e-11
1.10511584079e-11
1.11375377546e-11
1.12178167491e-11
1.13413417523e-11
1.13146096342e-11
1.11827386866e-11
1.09821538618e-11
1.08713977855e-11
1.08026274938e-11
1.07577772799e-11
1.07207431143e-11
1.06947727616e-11
1.0677643564e-11
1.06745292184e-11
1.06864147413e-11
1.07073404882e-11
1.07445823194e-11
1.07968091731e-11
1.08616582992e-11
1.0936623554e-11
1.10193054461e-11
1.11081448558e-11
1.12028707813e-11
1.13000386429e-11
8.30052276763e-12
8.36050041327e-12
8.42181462568e-12
8.48322396217e-12
8.54535201221e-12
8.60723684704e-12
8.67014707895e-12
8.73310823242e-12
8.79746623716e-12
8.86158482115e-12
8.92646419076e-12
8.9924567069e-12
9.05740110437e-12
9.12387582397e-12
9.19121389472e-12
9.25833928769e-12
9.32580575279e-12
9.39488038598e-12
9.46313518122e-12
9.53374987345e-12
9.60306220335e-12
9.67419667273e-12
9.74493200218e-12
9.81768481931e-12
9.88956540232e-12
9.96246430794e-12
1.00359548194e-11
1.01101937158e-11
1.01844687224e-11
1.02613736032e-11
1.03361972394e-11
1.04143026265e-11
1.04900194909e-11
1.05694276197e-11
1.0646081398e-11
1.07261838743e-11
1.0806032211e-11
1.08868449934e-11
1.09693670892e-11
1.10510946712e-11
1.11376357732e-11
1.12189251577e-11
1.13406815521e-11
1.13165948306e-11
1.11908931531e-11
1.10002940641e-11
1.08923988483e-11
1.0822122755e-11
1.07704798349e-11
1.07327029181e-11
1.06932634454e-11
1.06717480286e-11
1.06662953e-11
1.06779985546e-11
1.06984880976e-11
1.07360769726e-11
1.07894335598e-11
1.0855640554e-11
1.09319563621e-11
1.1015677286e-11
1.11053576945e-11
1.12005064296e-11
1.12978753989e-11
8.30051730546e-12
8.36046028476e-12
8.42179554592e-12
8.48320044266e-12
8.5453362483e-12
8.60720896821e-12
8.67012505456e-12
8.73306095653e-12
8.79741207594e-12
8.86150146123e-12
8.92642094811e-12
8.99241351424e-12
9.05741335515e-12
9.12384203168e-12
9.19118708594e-12
9.258304227e-12