/*--------------------------------*- C++ -*----------------------------------*\
  =========                 |
  \\      /  F ield         | OpenFOAM: The Open Source CFD Toolbox
   \\    /   O peration     | Website:  https://openfoam.org
    \\  /    A nd           | Version:  6
     \\/     M anipulation  |
\*---------------------------------------------------------------------------*/
FoamFile
{
    version     2.0;
    format      ascii;
    class       volScalarField;
    location    "0.0002";
    object      OH;
}
// * * * * * * * * * * * * * * * * * * * * * * * * * * * * * * * * * * * * * //

dimensions      [0 0 0 0 0 0 0];

internalField   nonuniform List<scalar> 
208908
(
0.000393170028432
0.000392973426124
0.00039274830722
0.000392522941143
0.000392296406811
0.000392067170568
0.000391833714931
0.000391596556583
0.000391354573472
0.000391108578814
0.000390857941938
0.000390603321194
0.000390344324634
0.000390081155246
0.000389813726353
0.000389542354534
0.000389266672823
0.000388987352724
0.000388703487432
0.000388416219503
0.000388124871307
0.000387829659514
0.000387530441818
0.000387227637974
0.000386920800163
0.00038661118223
0.000386296574078
0.000385979353521
0.000385658596316
0.000385333957171
0.000385005321066
0.000384674827093
0.000384339512263
0.000384000784486
0.00038365952602
0.000383314693508
0.000382966678335
0.000382615088575
0.000382258815056
0.000381902364616
0.000381541303962
0.00038117795264
0.000380810057241
0.000380440272427
0.000380065845363
0.000379691370766
0.000379309463893
0.000378930994708
0.000378545251302
0.000378157430593
0.000377764391207
0.00037737440148
0.000376975069487
0.000376579519934
0.00037617853304
0.000375773327186
0.000375361405626
0.000374956782884
0.000374543300858
0.000374131529447
0.000373704570262
0.000373291328372
0.000393170285473
0.000392973684069
0.000392748561374
0.0003925232038
0.000392296664019
0.000392067425006
0.000391833971011
0.000391596792349
0.000391354837712
0.000391108808915
0.000390858199594
0.000390603550541
0.000390344563194
0.00039008137807
0.000389813969438
0.000389542573919
0.000389266904559
0.000388987562575
0.000388703698011
0.000388416453294
0.000388125080786
0.000387829847447
0.000387530646025
0.000387227828283
0.000386920892122
0.000386611352719
0.000386297057653
0.000385979532106
0.000385658660181
0.00038533412783
0.000385006089977
0.000384674897176
0.000384339503131
0.000384000783936
0.000383659746565
0.000383314896572
0.000382966724642
0.000382615331618
0.000382259043625
0.000381902446782
0.000381541333596
0.000381178316219
0.000380810355438
0.00038044061554
0.000380065911263
0.00037969146817
0.000379309340393
0.00037893117394
0.00037854536083
0.000378157639364
0.000377764476785
0.000377374656247
0.000376975270634
0.00037657980077
0.000376178686632
0.000375773338207
0.000375361721498
0.000374956751075
0.000374542657843
0.000374131860125
0.000373705167429
0.000373292065475
0.000393170535425
0.00039297393282
0.00039274881498
0.000392523450724
0.00039229692276
0.000392067678303
0.000391834212355
0.00039159703723
0.000391355083982
0.000391109052129
0.000390858435461
0.000390603786094
0.00039034479642
0.000390081600874
0.000389814198935
0.000389542805364
0.000389267110433
0.000388987785662
0.000388703908887
0.0003884166647
0.000388125274072
0.000387830058251
0.00038753083019
0.000387228053868
0.000386921283448
0.000386611506414
0.000386297276042
0.00038597969739
0.000385658843896
0.000385334367159
0.00038500610597
0.000384675127096
0.000384339707171
0.00038400116278
0.000383660006698
0.000383315082835
0.000382967025118
0.000382615500076
0.000382258757741
0.00038190275141
0.000381542299278
0.000381178439722
0.000380809941135
0.000380440646032
0.000380066510447
0.000379691711739
0.000379309849593
0.000378931145813
0.000378544731425
0.000378157738548
0.000377765053611
0.000377374852091
0.000376975345204
0.000376579788541
0.000376178766559
0.000375773469016
0.000375361858707
0.000374957099835
0.000374543438224
0.000374132066826
0.000373704696647
0.000373292077802
0.000393170776299
0.000392974173945
0.000392749057036
0.000392523693644
0.000392297172999
0.000392067927107
0.000391834443639
0.000391597286243
0.000391355318518
0.000391109286229
0.000390858678369
0.000390604009595
0.000390345016581
0.000390081846688
0.000389814401499
0.000389543025315
0.000389267347305
0.000388987970885
0.000388704124594
0.000388416876065
0.000388125449625
0.000387830271781
0.00038753106696
0.000387228151944
0.000386920895616
0.000386611799645
0.000386297948667
0.000385979913112
0.000385658911785
0.000385334441297
0.000385006560405
0.000384675384613
0.000384339814897
0.000384001280616
0.000383660133858
0.000383315218329
0.00038296697857
0.000382615846725
0.000382259625113
0.000381902889254
0.000381541740041
0.000381178605077
0.000380810849132
0.00038044097577
0.000380066584975
0.000379691844285
0.000379309714168
0.000378931536895
0.000378545814528
0.000378157918798
0.000377764624547
0.000377374809351
0.000376975564061
0.000376580016339
0.0003761789627
0.000375773637993
0.000375361796928
0.00037495720137
0.000374543223721
0.000374131967774
0.000373705832484
0.000373291652457
0.000393171006647
0.00039297440449
0.000392749287875
0.000392523931714
0.00039229740815
0.000392068174785
0.000391834669534
0.000391597525622
0.000391355540953
0.000391109538206
0.000390858885219
0.000390604251783
0.000390345238366
0.000390082056321
0.00038981462822
0.000389543257781
0.000389267518948
0.00038898821849
0.000388704299014
0.000388417078662
0.000388125667914
0.000387830442568
0.00038753125486
0.000387228386389
0.00038692121822
0.000386611985426
0.000386297826732
0.000385980108706
0.000385659239729
0.000385334700874
0.000385006284265
0.000384675562338
0.000384340128804
0.000384001544599
0.000383660452777
0.000383315622361
0.000382967450154
0.00038261584893
0.000382259514728
0.000381903062753
0.000381542206405
0.000381178931822
0.000380811003577
0.000380440887248
0.000380066592584
0.000379691845559
0.000379309702413
0.000378931597585
0.000378545635387
0.000378158147494
0.000377765524019
0.00037737516861
0.000376975675135
0.000376579809857
0.00037617874945
0.000375773538015
0.00037536238524
0.000374957564621
0.000374543962615
0.000374132219783
0.00037370499991
0.000373291918542
0.000393171227639
0.000392974625555
0.000392749512492
0.000392524153834
0.000392297649464
0.000392068395767
0.000391834915751
0.000391597728832
0.000391355793563
0.000391109753171
0.000390859119006
0.000390604466553
0.000390345466801
0.000390082270795
0.000389814852542
0.000389543453967
0.000389267741396
0.000388988418462
0.00038870450118
0.00038841726789
0.000388125863503
0.000387830643436
0.000387531458572
0.000387228590929
0.000386921640029
0.000386612200256
0.00038629784331
0.000385980397754
0.00038565951811
0.000385334922065
0.000385006438374
0.000384675684304
0.000384340399584
0.000384001850229
0.000383660571721
0.000383315414009
0.000382967599198
0.000382616095019
0.0003822596118
0.000381903326703
0.000381542031306
0.000381178925814
0.000380811109597
0.000380441189589
0.00038006646671
0.000379692123668
0.000379310121336
0.000378931852387
0.000378545763535
0.000378158235079
0.000377765108797
0.000377375189021
0.000376976000182
0.000376580278186
0.000376179113948
0.000375773723437
0.000375362730786
0.000374957631376
0.000374544014906
0.000374132088764
0.000373705157212
0.000373292291647
0.000393171441059
0.000392974841294
0.000392749723595
0.000392524379866
0.00039229786855
0.000392068627758
0.000391835133955
0.000391597957853
0.000391356020521
0.00039110997113
0.000390859356873
0.000390604680557
0.000390345681844
0.000390082506589
0.000389815042021
0.000389543682978
0.000389267948324
0.000388988616933
0.000388704702066
0.000388417448368
0.000388126093624
0.000387830836279
0.000387531629448
0.000387228816332
0.000386922037752
0.000386612341737
0.000386297920979
0.000385980526944
0.000385659735552
0.000385335236809
0.000385007057277
0.000384675773676
0.000384340378101
0.000384001884327
0.000383660805199
0.000383316014194
0.00038296778956
0.000382616177937
0.000382260172021
0.000381903513624
0.00038154220063
0.000381179076245
0.000380810992898
0.000380441427904
0.000380067004659
0.000379692371939
0.000379310183026
0.000378932032882
0.000378545696195
0.000378158384983
0.000377765570646
0.000377375359575
0.000376975746656
0.000376580392245
0.000376179304895
0.00037577389875
0.000375362322775
0.000374957639634
0.000374544179517
0.000374132304636
0.000373706213189
0.000373292383744
0.000393171649763
0.000392975050413
0.000392749936247
0.000392524591051
0.000392298094353
0.000392068845337
0.000391835354824
0.000391598189698
0.0003913562327
0.000391110205709
0.000390859589351
0.000390604878754
0.000390345926689
0.000390082698952
0.000389815284546
0.000389543869636
0.000389268172492
0.000388988804862
0.000388704924301
0.000388417643026
0.000388126282669
0.000387831054605
0.000387531856897
0.000387228989173
0.000386922105427
0.000386612563281
0.000386298141543
0.000385980742807
0.000385659946225
0.000385335372962
0.000385006982059
0.0003846760942
0.000384340733582
0.000384002016647
0.00038366094323
0.000383316091363
0.000382967852912
0.000382616558907
0.000382260036151
0.000381903535431
0.000381542516316
0.000381179384016
0.000380811546109
0.00038044146576
0.000380066987592
0.000379692503336
0.000379310707865
0.000378932104275
0.000378546052873
0.00037815851633
0.000377765436883
0.000377375429125
0.000376975708664
0.000376580549975
0.000376179608453
0.000375774316661
0.000375362629161
0.0003749575353
0.000374543510435
0.000374132494414
0.000373706387864
0.000373292559116
0.000393171853864
0.000392975254497
0.000392750144832
0.000392524798258
0.000392298311849
0.000392069061055
0.000391835576229
0.000391598406996
0.000391356467923
0.000391110420668
0.000390859812258
0.000390605114503
0.000390346137912
0.000390082909206
0.000389815504116
0.000389544094423
0.00038926836715
0.000388989029236
0.000388705103289
0.0003884178724
0.000388126513703
0.000387831244769
0.00038753204857
0.000387229240016
0.000386922400453
0.000386612813133
0.000386298488276
0.000385980889307
0.000385660102434
0.000385335551293
0.000385007219366
0.00038467628835
0.000384340914731
0.000384002228567
0.000383661103514
0.000383316104399
0.000382968239168
0.000382616719605
0.000382260551289
0.000381903818139
0.000381542283646
0.00038117932865
0.00038081157627
0.000380441809999
0.000380067613333
0.000379692593281
0.000379310217013
0.00037893198411
0.000378546008431
0.000378158890962
0.000377765927352
0.000377375878265
0.000376975986703
0.000376580530382
0.000376179433794
0.000375774040856
0.000375362587459
0.000374957975056
0.000374544612997
0.000374133083949
0.000373706108064
0.000373292371976
0.000393172054882
0.000392975454868
0.000392750353255
0.000392524999223
0.000392298526818
0.000392069276062
0.000391835791012
0.000391598632303
0.000391356680276
0.000391110661711
0.000390860022234
0.000390605343562
0.000390346344763
0.000390083145575
0.000389815721338
0.000389544280389
0.000389268619089
0.000388989210442
0.000388705349494
0.000388418079439
0.00038812671221
0.000387831474812
0.000387532295045
0.000387229423759
0.000386922453115
0.000386613033823
0.00038629877763
0.000385981128143
0.000385660240898
0.000385335731968
0.000385007694167
0.000384676444062
0.000384340982437
0.000384002313952
0.000383661294885
0.00038331657459
0.000382968493721
0.000382616760216
0.000382260187189
0.000381903896408
0.000381542831823
0.000381179714307
0.000380812041681
0.000380441970146
0.000380067405136
0.000379692789143
0.000379310689315
0.000378932483679
0.000378546381845
0.000378158843379
0.000377765873153
0.000377375740156
0.000376975923553
0.000376580668697
0.000376179792979
0.000375774628489
0.000375362963226
0.00037495804617
0.000374544673395
0.000374132740891
0.000373706087256
0.000373292491867
0.000393172251793
0.000392975653787
0.000392750551175
0.000392525205578
0.000392298728601
0.000392069491497
0.000391836004157
0.000391598844656
0.000391356900095
0.000391110888318
0.000390860237314
0.000390605559313
0.000390346583815
0.000390083337996
0.000389815951968
0.000389544510724
0.000389268809147
0.00038898945369
0.000388705572761
0.000388418295579
0.000388126928191
0.000387831727119
0.000387532480807
0.000387229680756
0.00038692274656
0.000386613238108
0.000386298937901
0.000385981387822
0.000385660447668
0.000385335947117
0.000385007624393
0.000384676767976
0.000384341293859
0.000384002651268
0.000383661452636
0.000383316696408
0.000382968620291
0.000382617037486
0.000382260726618
0.000381904150644
0.000381543239805
0.000381179779032
0.000380811422661
0.000380442049813
0.000380068068216
0.00037969290381
0.000379311109612
0.000378932596083
0.000378546801643
0.000378158872474
0.000377765861743
0.000377375722785
0.000376976046933
0.000376580897033
0.000376180058994
0.000375774887954
0.000375362965168
0.000374958164233
0.000374544771187
0.000374132931403
0.000373705851113
0.000373293209843
0.000393172443748
0.000392975845922
0.000392750750062
0.000392525400399
0.000392298933471
0.000392069694426
0.000391836211317
0.000391599052875
0.000391357122898
0.000391111078571
0.00039086047859
0.000390605768961
0.000390346791631
0.000390083573556
0.000389816140857
0.000389544763501
0.000389269021476
0.000388989678211
0.000388705791912
0.000388418535061
0.000388127172713
0.000387831909746
0.000387532751397
0.000387229857257
0.000386922819137
0.000386613459236
0.000386298982848
0.000385981625451
0.000385660797919
0.000385336217217
0.000385007861545
0.000384676878585
0.000384341507154
0.000384002884878
0.000383661742517
0.000383316824619
0.000382968715537
0.000382617298852
0.000382260890961
0.000381904283747
0.000381543462642
0.000381180020079
0.000380811819191
0.000380442245266
0.000380068033449
0.000379693183352
0.000379310501706
0.000378932735923
0.00037854693188
0.000378159445772
0.000377766155894
0.000377375987993
0.000376976172374
0.000376580919989
0.000376180067164
0.00037577489404
0.000375363242721
0.000374958322479
0.0003745446911
0.000374133425692
0.000373706410309
0.000373292622261
0.000393172629065
0.000392976031577
0.000392750944322
0.000392525586971
0.00039229913204
0.00039206989247
0.000391836406855
0.000391599254554
0.000391357317509
0.000391111298802
0.000390860673551
0.000390605981595
0.000390347013254
0.000390083781716
0.000389816354285
0.00038954498478
0.00038926925839
0.000388989906261
0.000388706011692
0.000388418769617
0.000388127384263
0.00038783216731
0.000387532941157
0.000387230113157
0.000386923388999
0.000386613629969
0.000386299044259
0.000385981842132
0.00038566107523
0.000385336382976
0.000385007879017
0.000384677061827
0.000384341738454
0.000384003137152
0.000383661877703
0.000383316862513
0.000382968799623
0.000382617381622
0.000382261382614
0.000381904588628
0.000381543348662
0.00038118007955
0.000380812046805
0.00038044242068
0.000380068263899
0.000379693483395
0.000379311230118
0.00037893282081
0.000378546923466
0.000378159199854
0.000377766257652
0.000377376236939
0.00037697688279
0.00037658116891
0.00037618012928
0.000375774974099
0.000375363159467
0.000374958400108
0.000374544812366
0.00037413365551
0.000373706987288
0.000373292812872
0.000393172805183
0.000392976209668
0.000392751128669
0.000392525764437
0.000392299325426
0.000392070066572
0.000391836607099
0.000391599424337
0.00039135752445
0.000391111474553
0.000390860886356
0.000390606185633
0.000390347214254
0.00039008397706
0.000389816590375
0.000389545197115
0.000389269480853
0.000388990132831
0.00038870623403
0.000388419005073
0.000388127600604
0.000387832390958
0.000387533178834
0.000387230287224
0.000386923172329
0.000386613859672
0.000386299680276
0.000385982062624
0.000385661059203
0.000385336534498
0.000385008218287
0.000384677336869
0.000384341893052
0.000384003283406
0.000383662164684
0.000383317321603
0.000382968826604
0.0003826176332
0.000382261081089
0.000381904746042
0.00038154355377
0.000381180379618
0.000380812260917
0.000380442542065
0.000380068246599
0.000379693415681
0.000379311170989
0.000378933139498
0.000378547448198
0.000378159600671
0.00037776632147
0.000377376268305
0.000376976839156
0.000376581257697
0.000376180293844
0.000375775219627
0.000375363275739
0.000374958590995
0.000374545309677
0.000374133389625
0.000373706333708
0.000373293123
0.000393172970124
0.00039297637614
0.000392751299495
0.000392525939497
0.000392299491023
0.000392070247019
0.000391836773956
0.000391599602821
0.000391357689849
0.000391111661609
0.000390861082842
0.000390606362698
0.000390347420695
0.000390084173637
0.00038981679842
0.000389545411367
0.000389269697802
0.000388990344138
0.000388706464382
0.000388419221057
0.00038812779845
0.000387832619111
0.000387533386715
0.000387230546721
0.000386923583542
0.000386614082176
0.000386299633988
0.000385982161517
0.000385661281233
0.000385336885783
0.000385008831758
0.000384677436354
0.000384341909906
0.000384003425469
0.00038366231992
0.000383317476099
0.000382969283448
0.000382617742879
0.000382261158466
0.000381904870374
0.000381544075453
0.000381180692729
0.00038081297928
0.000380442725787
0.000380068076467
0.000379693553955
0.000379311530531
0.000378933329698
0.0003785474221
0.000378159732345
0.000377766776826
0.000377376490777
0.000376976524173
0.000376581456414
0.000376180542823
0.000375775389562
0.000375363526795
0.000374958610189
0.000374545235586
0.000374133363149
0.000373706716268
0.000373292472959
0.000372873597511
0.000372446717859
0.000372013481264
0.000371587568696
0.000371158196091
0.000370723389942
0.000370280656058
0.000369840802002
0.000369401377219
0.000368957628053
0.000368512535485
0.000368052283715
0.000367611406411
0.000367159766668
0.000366707234087
0.000366244695788
0.000365785206189
0.000365312789673
0.000364858393052
0.000364387209188
0.000363931217461
0.000363463207497
0.000362991348686
0.000362513766648
0.000362027612046
0.000361549977116
0.000361060660789
0.000360585876123
0.000360095871059
0.000359619209052
0.00035913147499
0.000358648356954
0.000358147083007
0.000357650149532
0.000357137265389
0.000356638212712
0.000356118720861
0.00035563296238
0.000355110776255
0.00035462567857
0.000354107380713
0.000353646043223
0.000352849398106
0.00035334117299
0.000354549795217
0.000355505211228
0.000355605289226
0.000355384098543
0.000354993794123
0.000354533271287
0.000354114288158
0.00035371255998
0.000353334148938
0.000352973631146
0.000352630481624
0.000352245778534
0.000351828828498
0.000351385416818
0.000350910497228
0.000350388838857
0.0003498384031
0.000349263827823
0.000348693363379
0.000372873755619
0.000372447044262
0.00037201357954
0.000371587461506
0.000371158195566
0.000370723711598
0.000370280771763
0.000369840663032
0.000369401448515
0.000368957847782
0.000368512731901
0.000368052429153
0.000367611910941
0.000367159166014
0.000366707257256
0.000366244561754
0.000365785487121
0.000365313400301
0.000364858702868
0.00036438769382
0.000363931219577
0.000363463356384
0.000362990953089
0.000362513671256
0.000362028159087
0.000361550028554
0.000361060382784
0.000360585541815
0.000360095517394
0.000359618661169
0.000359131325618
0.000358648239522
0.000358147280093
0.000357649971485
0.000357137050638
0.000356638096892
0.00035611862045
0.000355633109381
0.000355110312183
0.0003546254792
0.000354106258312
0.000353642938243
0.000352847887461
0.000353301132949
0.000354485727668
0.000355431235696
0.000355539484346
0.000355326275983
0.000354948428925
0.000354503531312
0.000354097831203
0.000353737034713
0.000353385381199
0.000353040726611
0.000352705621939
0.000352323002778
0.000351901107021
0.000351448638879
0.000350960899997
0.000350430206504
0.000349870369836
0.000349291038101
0.000348716711963
0.000372873761545
0.000372446904811
0.000372014092985
0.000371587916835
0.000371158384568
0.000370723841902
0.000370280658511
0.000369840500199
0.000369401559468
0.000368957557686
0.000368513097314
0.000368053080299
0.00036761211706
0.000367158981532
0.000366707231474
0.000366244315436
0.000365785435509
0.000365313443383
0.000364858554887
0.000364387808294
0.000363931104355
0.000363464147717
0.000362990864871
0.000362513712458
0.000362028561249
0.000361550022223
0.000361060040111
0.000360585595844
0.000360095938228
0.000359618967425
0.000359131783353
0.000358648249478
0.000358147150487
0.000357649566372
0.000357136821092
0.000356638123021
0.000356118556504
0.000355633295123
0.000355110125784
0.000354625472729
0.000354104827022
0.000353638791403
0.000352846115102
0.000353262659208
0.000354420809183
0.000355353382491
0.000355469666167
0.000355265089332
0.000354902039976
0.000354476990857
0.000354078908576
0.000353768395014
0.000353449159562
0.000353116454932
0.000352771845262
0.000352382891639
0.000351958970535
0.000351503636287
0.000351005797547
0.000350468251581
0.000349902117003
0.000349319590705
0.000348743149838
0.000372873714008
0.000372447139478
0.000372014085267
0.000371588125887
0.0003711585219
0.000370724084868
0.000370280648284
0.000369840630742
0.000369401778884
0.000368958368989
0.000368513011459
0.000368052113207
0.000367611742583
0.0003671593403
0.000366707589858
0.000366244403461
0.000365785469102
0.000365313408073
0.000364858547292
0.000364388286614
0.000363931304664
0.000363464776161
0.000362990704494
0.000362513629923
0.000362029095325
0.000361550258181
0.000361059935648
0.000360585599553
0.000360096121509
0.000359618748773
0.000359131392887
0.000358647916315
0.000358147070881
0.000357649511639
0.000357137024612
0.000356638430281
0.000356118830766
0.000355633287907
0.000355109590994
0.000354625458568
0.000354103004997
0.000353634119876
0.000352845003302
0.000353226778826
0.000354355661851
0.000355271693082
0.000355395486776
0.000355200524632
0.000354854544632
0.000354483114554
0.000354061347491
0.000353794033991
0.000353503334831
0.000353187882858
0.000352841951652
0.000352450223071
0.000352018157122
0.000351549077937
0.000351041323224
0.000350498101069
0.000349927761482
0.000349342707967
0.000348762997207
0.000372874144442
0.000372447387733
0.000372014373873
0.000371587614653
0.000371158495418
0.000370724222467
0.000370281145694
0.000369841174758
0.00036940204777
0.000368957582335
0.000368513268829
0.000368053259117
0.000367612292099
0.000367158888475
0.00036670743745
0.000366244566311
0.000365785781202
0.000365313908294
0.000364858765973
0.000364388223805
0.000363931111206
0.000363464483951
0.000362990525549
0.000362513580418
0.000362029189377
0.000361550341025
0.00036106017465
0.000360585784846
0.00036009624252
0.000359619370665
0.000359131384468
0.000358647715253
0.000358146897185
0.000357649336928
0.000357137061307
0.000356638551959
0.000356118834935
0.000355633310496
0.000355109449998
0.000354625881142
0.000354101509336
0.000353628980999
0.0003528443122
0.000353193166801
0.000354289965834
0.000355186052829
0.000355316622943
0.000355133263418
0.000354886340665
0.000354420995943
0.000354082516265
0.000353810819422
0.000353556681787
0.000353255344942
0.000352908781158
0.00035251417896
0.00035207162209
0.000351587076592
0.000351066413291
0.00035051552932
0.000349942798688
0.000349357295563
0.000348777127789
0.000372874199848
0.000372447642132
0.00037201466946
0.000371587906559
0.000371158726478
0.000370724483741
0.000370281384495
0.000369841367725
0.00036940218866
0.000368958127686
0.00036851326245
0.000368052700196
0.000367612103825
0.000367159262357
0.000366707701454
0.000366244613008
0.000365785821572
0.00036531385189
0.00036485881588
0.000364388428167
0.000363931241356
0.000363464509581
0.000362990699713
0.000362513648996
0.000362029165096
0.000361550439437
0.000361060497206
0.000360585899392
0.000360096559082
0.000359618838151
0.000359131426898
0.000358647895736
0.000358147235316
0.000357649532244
0.000357137372197
0.000356638649206
0.000356118681763
0.000355633013069
0.000355108983954
0.000354626326119
0.000354100282523
0.000353624057298
0.000352844632517
0.000353162094288
0.000354223745873
0.000355096267752
0.000355233145533
0.000355063292852
0.000354801568411
0.000354421143895
0.000354147126389
0.000353854245562
0.000353601463196
0.000353312598742
0.000352965595259
0.000352563378941
0.000352110187692
0.00035161184674
0.000351079820303
0.00035052573744
0.000349956386145
0.000349377623622
0.000348802991014
0.000372874198119
0.000372447366363
0.000372014237471
0.000371587732563
0.000371158967033
0.000370724611103
0.000370281496458
0.000369841591357
0.000369402397606
0.000368958439403
0.000368513554151
0.000368053056219
0.000367612436407
0.000367159015992
0.000366707667357
0.000366244608761
0.000365786046959
0.000365314201449
0.000364859033671
0.000364388584255
0.000363931228868
0.000363464381057
0.000362990761941
0.000362513904795
0.000362029525669
0.000361550694358
0.000361061050651
0.000360585849574
0.000360096197607
0.000359618804641
0.000359131490587
0.000358647898234
0.000358147294167
0.000357649137402
0.000357137146847
0.000356638448954
0.000356118351119
0.000355632923914
0.000355109107228
0.000354627280594
0.000354099134359
0.000353618377371
0.000352845598963
0.000353133809176
0.0003541576236
0.000355003212246
0.000355145479147
0.000354991011626
0.000354717697157
0.000354437622365
0.000354170287221
0.000353910439835
0.000353619665848
0.000353362264256
0.000353020502172
0.000352613169594
0.000352152789773
0.000351647635545
0.000351109862039
0.000350553126669
0.000349982123794
0.000349397375037
0.000348812210577
0.000372874491434
0.000372447659074
0.000372015053267
0.000371587777847
0.000371159099948
0.000370724667436
0.000370281209192
0.000369841597117
0.000369402496438
0.000368959320522
0.000368513609757
0.000368052637314
0.000367612334487
0.00036715894799
0.000366707783602
0.000366244966813
0.000365786257139
0.000365314374446
0.00036485926562
0.000364388642854
0.000363931580547
0.000363464285745
0.000362991097887
0.000362513943672
0.000362029308412
0.000361550653399
0.000361061413668
0.000360585955687
0.000360097004406
0.000359618945519
0.000359131508547
0.000358647764143
0.000358147320744
0.000357649399141
0.000357137520512
0.000356638903168
0.000356118993979
0.000355632997096
0.000355109132462
0.000354627792688
0.000354096848414
0.000353612574106
0.000352847831535
0.000353109252602
0.000354092470082
0.000354907281204
0.000355053411201
0.000354914936147
0.000354672505266
0.000354410591778
0.000354197384468
0.000353933936626
0.000353666744637
0.000353401854808
0.000353066095258
0.000352656442492
0.000352188534168
0.000351676801178
0.00035113661978
0.000350578784545
0.000350006315237
0.00034941838791
0.000348831383787
0.000372874537598
0.000372447777745
0.00037201519526
0.000371588022231
0.000371159190207
0.000370724988972
0.000370281839141
0.000369841897714
0.000369402602176
0.000368959717089
0.000368513625296
0.000368052473651
0.000367612262847
0.000367159461022
0.000366708104892
0.000366244958323
0.000365786296066
0.000365314420536
0.000364859331048
0.000364388697497
0.000363931629953
0.000363464219585
0.000362991257287
0.000362514109348
0.000362029334373
0.000361550840683
0.000361062073156
0.000360586109724
0.000360097089262
0.000359618163964
0.000359131174962
0.000358647640719
0.000358147371516
0.000357649381676
0.000357137849865
0.000356638889423
0.000356118995537
0.000355632800649
0.000355108971378
0.000354628635819
0.000354095343217
0.000353606535769
0.000352850974067
0.00035308757898
0.000354027211712
0.000354808246436
0.000354958201715
0.000354837076004
0.000354630749141
0.000354443956586
0.000354234982587
0.000353994758192
0.000353720488711
0.000353433067954
0.000353101270473
0.000352684674979
0.000352209141179
0.000351691177335
0.000351146253165
0.000350584508358
0.0003500081686
0.000349415848795
0.000348826213904
0.000372874633964
0.000372448012965
0.000372015550962
0.000371588713879
0.000371159254038
0.00037072494008
0.000370281443028
0.00036984203753
0.000369402688924
0.000368959811678
0.000368513836922
0.000368053258007
0.00036761294091
0.00036715934484
0.000366708223096
0.000366245156595
0.000365786441592
0.00036531463788
0.000364859555542
0.000364388776533
0.000363931849454
0.000363463844024
0.00036299161652
0.000362514238564
0.000362029262934
0.000361550723659
0.000361062103718
0.00036058530829
0.000360097294653
0.000359618555208
0.000359131557898
0.000358647699083
0.000358147248461
0.000357649285414
0.000357137704854
0.000356638901588
0.000356119380659
0.000355633045169
0.000355109740023
0.000354629767759
0.000354093464683
0.000353600572603
0.000352855347563
0.000353070018663
0.000353963547262
0.000354707540548
0.000354859692326
0.000354757681194
0.000354603290588
0.000354398445859
0.000354244863594
0.000354050754461
0.000353790556974
0.000353470194427
0.00035314761382
0.000352728633951
0.000352245512885
0.000351718415628
0.000351163694248
0.000350594668542
0.000350013186506
0.000349419232735
0.000348830101433
0.000372874791286
0.000372448058203
0.000372015619922
0.000371588749721
0.000371159237573
0.000370724986508
0.000370281923606
0.000369842137342
0.000369402763395
0.000368960563946
0.000368513901248
0.000368052691315
0.000367612383304
0.000367159217318
0.000366708162427
0.000366245310396
0.000365786628926
0.000365314767991
0.000364859722104
0.000364388949978
0.000363932130202
0.000363463838954
0.000362992057706
0.000362514506217
0.000362029180072
0.00036155097261
0.000361062645783
0.000360585548911
0.000360097802382
0.000359617978111
0.000359131213582
0.000358647660924
0.000358147530371
0.000357649513849
0.000357138097451
0.000356638880224
0.000356119559688
0.000355632961817
0.000355109932247
0.00035463091457
0.000354092047951
0.000353594835467
0.000352860769574
0.000353055613709
0.000353900031059
0.000354604372868
0.000354756758108
0.000354678978802
0.000354549124837
0.000354415303059
0.000354282553064
0.000354105644306
0.00035384786062
0.000353510462924
0.000353188754306
0.000352761759726
0.000352267921881
0.000351733882225
0.00035117760425
0.00035060775351
0.000350024605322
0.000349427173994
0.000348836561726
0.000372874864683
0.000372448237133
0.000372015409848
0.000371588761289
0.00037115966797
0.000370725272111
0.000370281872518
0.000369842344792
0.000369403081186
0.000368961034227
0.000368514065313
0.000368053115335
0.00036761241931
0.000367159335063