/*--------------------------------*- C++ -*----------------------------------*\
  =========                 |
  \\      /  F ield         | OpenFOAM: The Open Source CFD Toolbox
   \\    /   O peration     | Website:  https://openfoam.org
    \\  /    A nd           | Version:  6
     \\/     M anipulation  |
\*---------------------------------------------------------------------------*/
FoamFile
{
    version     2.0;
    format      ascii;
    class       volScalarField;
    location    "0.0002";
    object      rho;
}
// * * * * * * * * * * * * * * * * * * * * * * * * * * * * * * * * * * * * * //

dimensions      [1 -3 0 0 0 0 0];

internalField   nonuniform List<scalar> 
208908
(
0.487036745303
0.485144539357
0.483885343578
0.482634568978
0.481385299164
0.48013901294
0.47889423466
0.477653605874
0.476414450214
0.475178357283
0.473944726776
0.472714096345
0.47148542387
0.470260052892
0.469036350602
0.467815973818
0.466597830016
0.465382551265
0.46416944985
0.462959327745
0.461751278422
0.4605462931
0.459343094661
0.458143195699
0.456945376047
0.455750026728
0.454557248348
0.453367297252
0.452179665991
0.450994319491
0.449811875805
0.448632020763
0.447454459118
0.446279398935
0.445106920493
0.443936872223
0.442769538274
0.441603989002
0.440441636979
0.439281223724
0.438124199444
0.43696796554
0.435816022782
0.434665031991
0.4335180669
0.43237173571
0.431229122512
0.430088169875
0.428950497367
0.427814200634
0.426681294736
0.425549466225
0.424421633861
0.423294769496
0.422171348261
0.421049066741
0.419930116354
0.418813432399
0.41769902452
0.416587078013
0.415476997071
0.414370308467
0.487037942346
0.485145727471
0.483886530107
0.482635733093
0.481386483585
0.480140140203
0.478895323852
0.47765471586
0.476415569171
0.475179407363
0.473945777363
0.472715101873
0.47148643927
0.470261068711
0.46903733727
0.46781695333
0.466598788576
0.465383465562
0.464170358957
0.462960215553
0.461752129988
0.460547159428
0.459343895495
0.458144022986
0.456946172082
0.455750862522
0.454558061524
0.453368154853
0.452180518786
0.450995190333
0.449812743118
0.448632864791
0.447455256615
0.446280250703
0.445107723957
0.443937666578
0.442770305116
0.441604785133
0.44044242208
0.439281921089
0.438124981262
0.436968637759
0.435816809467
0.434665628225
0.433518780751
0.432372294811
0.431229853888
0.430088768131
0.428951123876
0.427814786843
0.426682024564
0.425550052966
0.424422311824
0.423295318219
0.422172043271
0.421049644927
0.419930750352
0.418814067889
0.417699606717
0.416587754855
0.415477501173
0.414370971653
0.487039067185
0.485146846192
0.483887649855
0.482636836329
0.481387610879
0.480141211428
0.478896361641
0.477655770438
0.476416631672
0.475180404394
0.473946773496
0.472716053617
0.471487398589
0.470262027298
0.469038267552
0.467817873054
0.466599683708
0.465384319183
0.464171206688
0.462961043553
0.461752927302
0.460547975095
0.45934466002
0.45814481673
0.456946942358
0.45575168317
0.454558856638
0.453368996508
0.452181344514
0.450996037886
0.449813582389
0.448633680573
0.447456028439
0.446281081588
0.445108503359
0.443938442814
0.442771056727
0.441605574883
0.440443190704
0.439282614361
0.438125734422
0.436969298506
0.435817563483
0.434666210477
0.43351947074
0.432372850404
0.431230563576
0.430089350425
0.428951707164
0.427815360164
0.426682707636
0.42555061571
0.424422944944
0.423295830436
0.422172685426
0.4210502006
0.419931368905
0.418814693596
0.417700180402
0.416588433897
0.415478002833
0.414371650404
0.487040109327
0.485147884632
0.483888694721
0.482637871349
0.481388670727
0.480142216727
0.478897340233
0.477656761989
0.476417632637
0.475181345066
0.473947713544
0.472716948717
0.471488300674
0.470262923689
0.469039138011
0.467818728041
0.466600512877
0.465385110194
0.464171994262
0.462961814085
0.461753675018
0.460548745001
0.459345394127
0.458145581801
0.456947687731
0.455752486886
0.454559629599
0.453369804548
0.452182127261
0.450996843444
0.449814376782
0.448634450202
0.447456761723
0.44628187793
0.445109244811
0.44393918476
0.442771782337
0.441606340501
0.440443925395
0.439283288398
0.438126442308
0.436969944747
0.43581827848
0.434666780742
0.433520112868
0.432373406066
0.43123125771
0.430089923419
0.42895225604
0.427815913299
0.426683333042
0.425551147352
0.424423524198
0.423296311046
0.422173277991
0.421050733484
0.419931963292
0.418815294741
0.417700738596
0.416589095097
0.415478505553
0.414372336897
0.48704106266
0.485148837424
0.483889659968
0.48263883261
0.481389658852
0.480143151476
0.478898258185
0.47765769051
0.476418575984
0.475182233696
0.473948602343
0.472717791597
0.4714891496
0.470263761382
0.46903995077
0.467819521811
0.466601282375
0.465385847475
0.464172731697
0.462962538907
0.461754387622
0.460549480571
0.459346107435
0.458146327081
0.456948418418
0.455753275341
0.454560380594
0.453370578388
0.452182866147
0.450997606087
0.44981512906
0.448635182167
0.447457460617
0.446282643333
0.445109954825
0.443939897986
0.442772471181
0.441607081798
0.440444624316
0.439283937586
0.438127101405
0.436970580269
0.435818950983
0.434667350489
0.433520717103
0.432373952569
0.431231928742
0.430090484931
0.428952782487
0.427816445431
0.426683896202
0.425551656714
0.424424052389
0.423296775013
0.422173827827
0.421051251388
0.419932527006
0.418815868636
0.417701277332
0.416589730284
0.415479007173
0.414372994069
0.4870419347
0.485149711094
0.483890550484
0.48263972256
0.481390579271
0.480144021653
0.478899125783
0.477658566127
0.476419472029
0.475183079786
0.473949447623
0.47271859036
0.471489953746
0.470264548711
0.469040716587
0.467820263148
0.466602003164
0.46538654291
0.464173433746
0.46296323285
0.461755078109
0.460550195381
0.459346817625
0.458147066224
0.456949142469
0.455754049239
0.454561105869
0.453371318292
0.452183566216
0.450998334981
0.449815850147
0.448635891808
0.447458128123
0.446283388898
0.44511063781
0.443940585788
0.442773123663
0.441607795815
0.44044529153
0.439284569061
0.438127718407
0.436971207504
0.435819584193
0.434667932158
0.433521286804
0.432374483531
0.431232555056
0.430091034172
0.428953298073
0.427816966588
0.426684412302
0.425552158774
0.424424529553
0.423297237755
0.422174335334
0.421051761379
0.419933058652
0.418816416857
0.417701797193
0.416590333677
0.415479502695
0.41437357548
0.487042738849
0.485150518488
0.483891376672
0.482640548357
0.48139144185
0.480144837616
0.478899953814
0.477659403003
0.476420332599
0.475183894668
0.473950261875
0.472719357302
0.471490723781
0.470265295079
0.469041447904
0.467820969615
0.466602694351
0.465387214232
0.464174116772
0.462963915102
0.461755768557
0.460550906386
0.459347534581
0.45814780527
0.45694985706
0.455754802899
0.454561808862
0.453372036203
0.45218423941
0.450999044958
0.449816551093
0.448636593714
0.447458776646
0.446284117784
0.445111297624
0.443941250101
0.442773752914
0.44160848812
0.440445932842
0.439285189946
0.438128304445
0.436971830942
0.435820189315
0.434668530931
0.433521845784
0.432375011047
0.431233134363
0.430091572668
0.428953801674
0.427817483602
0.426684896149
0.425552662573
0.424424971801
0.423297712494
0.422174819423
0.421052277023
0.419933557249
0.418816937142
0.417702296111
0.416590900818
0.415479991068
0.414374131592
0.487043497511
0.485151280944
0.483892160601
0.48264133038
0.481392261458
0.480145619258
0.478900759861
0.477660215348
0.476421171858
0.475184690679
0.473951055817
0.472720102704
0.471491471534
0.470266015318
0.469042159609
0.467821655692
0.466603374048
0.46538788353
0.464174806724
0.462964610761
0.461756477688
0.460551628565
0.45934826206
0.458148540804
0.456950560653
0.455755542004
0.454562498851
0.453372740941
0.452184897294
0.450999750841
0.449817245626
0.448637288844
0.447459418028
0.446284837295
0.445111942405
0.443941898927
0.44277436608
0.441609164506
0.440446555296
0.439285806414
0.438128869226
0.436972456637
0.435820777244
0.434669152996
0.433522405179
0.432375546551
0.431233683597
0.430092107234
0.428954291269
0.427817991128
0.426685361836
0.42555317039
0.424425403054
0.423298201424
0.42217530225
0.421052800222
0.419934030459
0.418817427253
0.41770277481
0.416591428512
0.415480471178
0.414374667317
0.487044216576
0.485152003621
0.48389290748
0.482642074703
0.481393049437
0.480146370501
0.478901546844
0.477661004976
0.476421991772
0.475185471549
0.473951835699
0.472720832149
0.471492203493
0.470266719171
0.46904286554
0.467822339513
0.466604064463
0.465388573075
0.464175524077
0.462965332936
0.461757208167
0.460552365875
0.459348995785
0.458149274266
0.456951259686
0.455756274667
0.454563190333
0.453373444082
0.45218556094
0.451000462918
0.4498179396
0.44863797843
0.447460053946
0.446285546845
0.445112578113
0.44394254323
0.442774970984
0.441609830179
0.440447165261
0.439286424204
0.438129422767
0.43697308878
0.435821359332
0.43466979362
0.433522972393
0.432376100867
0.431234230963
0.430092648149
0.428954768953
0.427818490217
0.426685808865
0.425553686784
0.424425832574
0.423298706123
0.422175788912
0.421053334705
0.419934494507
0.418817909689
0.417703243132
0.416591914822
0.415480942884
0.414375171983
0.487044908576
0.485152698253
0.483893631392
0.48264279447
0.481393816231
0.48014710468
0.478902320064
0.477661770954
0.476422790768
0.475186237784
0.473952602786
0.472721549142
0.471492925757
0.470267414405
0.469043577494
0.467823038413
0.466604782728
0.465389293666
0.464176271343
0.462966079572
0.461757960993
0.460553114831
0.459349739187
0.458150002958
0.456951959775
0.455757012329
0.454563893206
0.453374155282
0.452186233115
0.451001181985
0.449818629734
0.448638663213
0.447460694709
0.446286257929
0.445113217465
0.443943191788
0.442775569943
0.441610488844
0.440447771046
0.439287049492
0.438129975157
0.436973732863
0.435821942412
0.434670442528
0.433523539257
0.432376686375
0.431234801094
0.430093206078
0.428955243677
0.427818989954
0.426686253662
0.425554217336
0.424426262034
0.423299220503
0.422176271108
0.42105389007
0.419934973379
0.418818399419
0.417703714033
0.416592374283
0.415481410769
0.414375638852
0.487045573934
0.485153365611
0.483894334345
0.48264348973
0.481394562565
0.480147810323
0.478903068539
0.477662503874
0.476423561477
0.475186981538
0.473953352726
0.472722253515
0.471493643733
0.470268110595
0.469044308429
0.467823762811
0.466605534218
0.465390045429
0.464177046708
0.462966846107
0.461758730917
0.460553871543
0.459350493554
0.458150731812
0.456952664905
0.45575776262
0.454564612569
0.453374870753
0.452186915798
0.451001907413
0.449819322913
0.448639351063
0.44746134571
0.446286971487
0.445113858564
0.443943843534
0.442776166909
0.441611145568
0.440448385267
0.439287688316
0.438130534635
0.436974391208
0.435822527558
0.434671091722
0.433524075216
0.432377316629
0.431235406408
0.430093790956
0.428955730051
0.427819506692
0.426686711341
0.425554759352
0.424426689615
0.423299731716
0.422176735593
0.421054450058
0.419935482778
0.418818905803
0.417704196316
0.4165928275
0.415481891757
0.414376073074
0.487046209387
0.485154004178
0.483895016046
0.48264415665
0.481395275873
0.480148479762
0.478903780726
0.477663193431
0.476424294522
0.475187692119
0.47395407603
0.472722940648
0.471494359464
0.470268815344
0.469045061982
0.467824515001
0.466606315315
0.465390819503
0.464177835982
0.46296761808
0.461759503266
0.460554628076
0.459351258842
0.458151462166
0.45695337737
0.455758519051
0.454565347352
0.453375589621
0.452187607539
0.451002640607
0.449820025353
0.448640045859
0.4474620062
0.446287681133
0.445114502406
0.443944504123
0.442776768587
0.441611812685
0.440449010179
0.439288346717
0.438131105716
0.436975059744
0.43582311505
0.43467174393
0.433524605211
0.432377964435
0.431236036898
0.430094399241
0.428956247941
0.427820059966
0.426687189146
0.425555309407
0.424427120602
0.423300234946
0.422177184459
0.421054983051
0.419935997894
0.418819419625
0.417704698111
0.416593294438
0.415482388899
0.414376490397
0.487046810431
0.485154610922
0.483895672634
0.482644789034
0.48139594702
0.480149099459
0.478904443686
0.477663828668
0.476424979862
0.475188360198
0.473954765649
0.472723603465
0.471495067109
0.470269527613
0.46904583502
0.467825284661
0.466607108711
0.465391600102
0.464178630127
0.462968392097
0.461760283897
0.460555384482
0.459352032924
0.458152198227
0.456954099739
0.455759275202
0.454566090636
0.453376309299
0.452188309158
0.451003385932
0.449820739133
0.448640746111
0.447462675892
0.446288386275
0.445115151997
0.443945175568
0.442777379176
0.441612491691
0.440449646975
0.439289019314
0.438131688864
0.436975737308
0.435823706389
0.434672404944
0.433525155155
0.432378603269
0.431236664978
0.430095022339
0.428956805569
0.427820647243
0.426687687265
0.425555864026
0.424427570817
0.423300737148
0.422177623108
0.421055485914
0.419936496469
0.418819916291
0.417705197035
0.416593775186
0.415482905947
0.414376910269
0.48704736227
0.485155171109
0.483896287795
0.482645368636
0.481396553936
0.480149649491
0.478905043459
0.477664400299
0.476425605926
0.475188972376
0.473955411672
0.472724234609
0.47149576719
0.470270230096
0.469046607855
0.467826047076
0.46660789629
0.465392369252
0.464179419504
0.462969164091
0.461761071656
0.460556141618
0.459352817989
0.458152938618
0.456954829081
0.455760025183
0.454566836695
0.45337702753
0.452189024245
0.451004142176
0.449821464977
0.448641451207
0.447463352837
0.446289080509
0.445115800227
0.443945845591
0.442777993668
0.441613171493
0.440450290993
0.439289697331
0.438132281808
0.43697641621
0.435824297267
0.434673064936
0.433525708944
0.432379228441
0.431237274511
0.430095644027
0.428957384192
0.427821256107
0.426688204416
0.425556426934
0.424428053376
0.423301244263
0.422178054707
0.421055968535
0.419936976106
0.418820381016
0.417705667731
0.416594234272
0.415483427092
0.414377336291
0.487047851992
0.485155669213
0.48389684687
0.482645881023
0.481397087067
0.480150122875
0.478905572077
0.477664901781
0.476426165939
0.475189523339
0.473956006256
0.472724826607
0.471496433393
0.47027090036
0.469047353779
0.467826771465
0.466608649688
0.465393105642
0.464180182112
0.462969908871
0.4617618413
0.460556881357
0.459353600333
0.458153664774
0.456955549117
0.455760750108
0.454567570056
0.453377734095
0.452189740143
0.45100489159
0.449822185062
0.448642141457
0.447464022855
0.446289749698
0.445116435206
0.443946501134
0.442778600498
0.441613833395
0.440450925457
0.439290364913
0.438132876485
0.436977079155
0.435824878915
0.434673711331
0.433526252092
0.432379840978
0.431237857791
0.430096240863
0.428957954818
0.427821860701
0.426688730007
0.425557001044
0.424428560239
0.42330175768
0.42217848716
0.421056440904
0.419937444489
0.418820814567
0.417706103398
0.416594653513
0.415483930719
0.414377763913
0.41326533681
0.412162546685
0.411062285188
0.409963568248
0.408869224948
0.40777456946
0.406684812598
0.405594428275
0.404509406229
0.403424586911
0.402344056731
0.401263467927
0.400187280689
0.399110906856
0.398040012747
0.396968215602
0.395901624355
0.394834181542
0.393771926279
0.392709106885
0.391651792934
0.390593075003
0.38953979319
0.388485743787
0.387437101368
0.386387412912
0.385343213722
0.384297727218
0.383257423701
0.382216167529
0.381179934671
0.380142329839
0.379109669437
0.378075989254
0.377047353975
0.37601612931
0.374996018521
0.373964341323
0.372947810267
0.371872404483
0.370955781908
0.369778140019
0.368324992901
0.375481756392
0.383787491753
0.384393808968
0.382460157694
0.380784028566
0.379248156904
0.377961580754
0.376879127565
0.376264762518
0.375967743547
0.375540301762
0.37495721878
0.374227525494
0.373341708722
0.372317763798
0.371187893943
0.369992618839
0.368769659629
0.367540732703
0.366312601356
0.413265731018
0.412163219383
0.4110626421
0.409964213771
0.408869671316
0.407775083227
0.406685306752
0.405594978616
0.404509854921
0.403424941577
0.402344397388
0.401263946287
0.400187539338
0.399111413164
0.398040365882
0.396968521678
0.395901948118
0.394834531094
0.393772266177
0.392709465103
0.391652074586
0.390593314015
0.389540071022
0.388485953574
0.387437391044
0.386387768655
0.385343552468
0.384298029844
0.383257737091
0.382216368995
0.381180135421
0.380142557627
0.379109837492
0.378076207345
0.377047778615
0.37601577105
0.374995863938
0.373964278583
0.372946038716
0.371874423108
0.370957757376
0.369756329206
0.368320935591
0.375175047648
0.38346681658
0.384142100945
0.382288115008
0.380638270818
0.379166732521
0.37795033419
0.377004973971
0.376563761428
0.376271705144
0.375835326496
0.375210618421
0.374439908765
0.373514570582
0.37245283635
0.371291665312
0.370071479132
0.368830510278
0.367588723719
0.366352637238
0.413266119562
0.412163879106
0.411062988416
0.409964875341
0.408870017619
0.407775659007
0.406685819832
0.405595581299
0.404510258804
0.403425361197
0.402344708481
0.401264416637
0.400187748265
0.399111955768
0.3980407141
0.396968866462
0.395902252878
0.394834901633
0.393772586656
0.392709819286
0.391652302986
0.390593557564
0.389540341185
0.388486200709
0.387437701111
0.386388162045
0.38534390021
0.384298329952
0.383258036034
0.382216574155
0.381180342807
0.380142793439
0.379110011919
0.378076358195
0.377048259757
0.376015536988
0.374995436797
0.373964160811
0.372944664832
0.371877375684
0.370958124957
0.369731595708
0.368320695753
0.374880485175
0.383128596026
0.383866798706
0.382102502812
0.38048484963
0.379094394256
0.377969131006
0.377190869455
0.376889037435
0.37655447724
0.376100699937
0.375439150967
0.374624704659
0.373660305828
0.372564613411
0.371377840064
0.370138792954
0.368883974042
0.367632747848
0.366391227195
0.413266489544
0.412164529383
0.411063341709
0.409965567558
0.408870361916
0.407776265424
0.406686308858
0.405596180426
0.404510642452
0.403425840778
0.402345018433
0.401264894419
0.400187953101
0.399112464119
0.39804104486
0.396969262431
0.395902553647
0.394835297099
0.393772829155
0.392710133727
0.39165250228
0.390593853479
0.389540634795
0.38848651005
0.387438027424
0.386388577204
0.385344220997
0.38429860524
0.383258304851
0.382216775758
0.3811805431
0.380143009017
0.379110174363
0.378076420788
0.377048672848
0.376015542347
0.374994802513
0.373963995768
0.372943667088
0.371881253929
0.37095636118
0.369704557551
0.368325545329
0.374600685569
0.382772497114
0.383567447513
0.381900967599
0.380328149358
0.379032501308
0.378018961325
0.377438758708
0.377211745745
0.376834413875
0.376344115079
0.375644583507
0.374787652944
0.373786526342
0.37266070347
0.371453819474
0.370202902624
0.368938027187
0.367677448673
0.366428275771
0.413266862332
0.412165181783
0.411063698224
0.409966286524
0.408870734563
0.407776873872
0.406686680152
0.405596794754
0.404511054626
0.403426360739
0.402345349345
0.401265361688
0.400188184246
0.399112964847
0.398041335327
0.396969679363
0.395902868301
0.394835693513
0.393772956095
0.392710459217
0.391652717098
0.390594236549
0.38954092087
0.388486873526
0.387438353126
0.386389001849
0.385344502822
0.384298867557
0.383258533834
0.382216970811
0.381180722461
0.380143178808
0.379110329012
0.378076435874
0.377048942328
0.376015729131
0.374994028326
0.373963729367
0.372943066787
0.371885439537
0.370952656626
0.369676666499
0.368335865282
0.374336116555
0.382398333371
0.383243866705
0.38168148988
0.380172146657
0.378989686524
0.378116469422
0.377707958324
0.377520086347
0.37710898178
0.376571760591
0.375828402984
0.374926165497
0.373888982121
0.372736505278
0.371513844053
0.370255467344
0.368986677938
0.367720317627
0.36646285894
0.41326728255
0.412165782617
0.41106409161
0.409967069152
0.408871124652
0.407777476977
0.406686989949
0.405597422296
0.40451146352
0.403426889732
0.402345711264
0.401265888267
0.400188486142
0.399113489519
0.398041514365
0.396970166729
0.395903207882
0.394836098353
0.39377300659
0.392710855105
0.391652981213
0.390594690496
0.389541198492
0.388487287973
0.38743865139
0.386389426583
0.385344761074
0.384299149628
0.383258714379
0.382217156784
0.381180847767
0.380143302037
0.379110485999
0.378076467477
0.377049069149
0.376016140542
0.374993194429
0.37396358911
0.372942541142
0.371890038919
0.370947239891
0.369650254686
0.368351664724
0.374087959977
0.382007506468
0.382896896812
0.381448310964
0.380016283112
0.378966834566
0.37824573406
0.377969474846
0.377822417796
0.377377136024
0.37678317271
0.375992433738
0.375044791261
0.373972393924
0.372796482981
0.371564030124
0.37030319828
0.369033191552
0.367764284883
0.366498783611
0.413267717611
0.412166356055
0.411064480692
0.409967798716
0.408871521845
0.407778096336
0.40668731816
0.405598044785
0.40451184809
0.403427410658
0.402346081832
0.401266476795
0.400188864117
0.399114035653
0.398041709684
0.396970669579
0.395903468066
0.394836536264
0.393773131482
0.392711302124
0.391653270697
0.390595171743
0.389541492815
0.388487761698
0.387438889956
0.386389833262
0.385344959358
0.384299438413
0.383258854339
0.38221736145
0.381180898449
0.380143356335
0.379110626797
0.378076597864
0.377048990394
0.376016531756
0.374992408226
0.373963416393
0.372941796771
0.371895411454
0.370938415728
0.369623283079
0.368376682985
0.373858995123
0.381600958969
0.382527048194
0.381195823057
0.379859629436
0.378965654779
0.378410587863
0.378237627352
0.378123569466
0.377643737223
0.376982601988
0.376138066797
0.375144313272
0.374037076811
0.37283993273
0.371600623451
0.370340847816
0.369072863931
0.367804371673
0.366532680043
0.413268157517
0.412166911545
0.411064871847
0.409968405373
0.408871941825
0.407778754606
0.406687684758
0.405598678233
0.404512235996
0.403427927522
0.402346451528
0.40126709669
0.400189284801
0.399114611345
0.398041954486
0.396971175128
0.395903675611
0.394837039117
0.39377337024
0.392711793386
0.391653470225
0.390595748588
0.389541748931
0.388488351852
0.38743903671
0.386390233622
0.385345112843
0.384299733404
0.383258926386
0.38221758848
0.38118089617
0.380143420409
0.379110689208
0.378076744572
0.377048765857
0.37601705099
0.374991767978
0.373963326352
0.372940968493
0.371900635408
0.370927069557
0.369600577107
0.368408997951
0.37364911379
0.38117873312
0.382135585034
0.380923151259
0.379696867895
0.378981050791
0.378610513895
0.378518867809
0.378404206079
0.37789487594
0.377166619897
0.376266023724
0.375226159987
0.374085165569
0.372870761833
0.371627696312
0.370370327824
0.369105435439
0.367837736808
0.366564896797
0.413268587905
0.412167445845
0.411065281097
0.409968942119
0.40887234525
0.40777945306
0.406688044811
0.405599343491
0.404512639139
0.40342846775
0.402346821316
0.401267719706
0.400189716064
0.399115231244
0.398042236974
0.396971708128
0.395903924255
0.39483762613
0.393773695038
0.392712330099
0.391653672508
0.390596364332
0.389542012344
0.388488941597
0.387439147251
0.38639064792
0.385345154128
0.384300075993
0.383258926383
0.382217837301
0.381180868495
0.380143546846
0.379110643336
0.378076966276
0.377048344002
0.376017821801
0.374991130599
0.373963257017
0.372939547195
0.371906165223
0.3709137731
0.369580333339
0.368449226874
0.373460630572
0.380742021377
0.381723965598
0.380636240168
0.379536623895
0.379030505903
0.378827877979
0.378826123485
0.378670513656
0.378125923817
0.37733245308
0.376375717777
0.375291281728
0.374120299617
0.37289325111
0.371648248446
0.370393488999
0.369132149814
0.367863915852
0.366595541453
0.413269002097
0.412167954216
0.41106570838
0.409969462561
0.408872699935
0.407780124555
0.406688348517
0.405600063036
0.404513049982
0.403429053093
0.402347211557
0.401268346712
0.400190135929
0.399115874872
0.398042556251
0.396972296454
0.395904271442
0.394838278665
0.39377406568
0.392712912563
0.391653923589
0.390596996437
0.389542229196
0.388489518089
0.387439220802
0.386391040029
0.385345094705
0.384300416872
0.383258772779
0.382218251634
0.381180795969
0.380143778529
0.379110468925
0.378077249445
0.377048039363
0.376018215691
0.374990645137
0.373963356732
0.372938283197
0.37191183279
0.370898009914
0.369563650526
0.368496763378
0.373294302935
0.380291038787
0.381294041084
0.380333189564
0.379380713127
0.379110836839
0.379016359348
0.379163332772
0.378924708519
0.378326671911
0.377475056477
0.376466695268
0.375339607751
0.374142247603
0.372906649601
0.371660365309
0.370408037916
0.369149931088
0.367883513955
0.366624507131
0.413269396456
0.412168418115
0.411066143076
0.4099699634
0.408873024851
0.407780714074
0.406688601745
0.405600772842
0.404513463094
0.403429694369
0.402347610647
0.401268956996
0.400190545538
0.399116513429
0.398042912007
0.396972967487
0.395904708625
0.394838962221
0.39377445033
0.392713542033
0.391654227048
0.390597623297
0.389542435266
0.388490100922
0.387439285652
0.386391379443
0.385344979803
0.384300714189
0.383258598981
0.382218644211
0.381180600364
0.380144112188
0.379110054206
0.378077697955
0.377047636549
0.376018610921
0.374989943762
0.373963596792
0.372936730253
0.371917706317
0.370880440787
0.369551212388
0.368551471796
0.373150872565
0.379826983444
0.380848902701
0.380005821767
0.379254339341
0.379164114183
0.379209191725
0.379501832267
0.379171591242
0.378506549471
0.377602615284
0.376547228745
0.375380482422
0.374158876747
0.372916170131
0.371667969253
0.370417381153
0.369159451781
0.367898266637
0.366652086965
0.413269780087
0.412168843161
0.41106655808
0.4099704214
0.408873340532
0.407781188409
0.406688857717
0.405601395502
0.404513904157
0.403430384579
0.402348035798
0.401269564195
0.400190990793
0.399117126585
0.398043315036
0.396973685416
0.395905156067
0.39483968131
0.393774859404
0.392714230943
0.391654547244
0.390598253915
0.389542655907
0.388490662662
0.387439341439
0.386391735068
0.385344877554
0.384301020083
0.383258375604
0.382218954779
0.381180399344
0.380144470582
0.37910962201
0.37807819873
0.37704716216
0.376018718854
0.374989565488
0.373963447636
0.372935315682
0.371922650776
0.370860481515
0.369544474149
0.368612727299
0.373029786078
0.379349734521
0.380393412806
0.379659528377
0.379148753022
0.379217344439
0.379450780709
0.379813030624
0.379404872421
0.37866442444
0.377704706718
0.376605953998
0.375408942142
0.374170599803
0.372922219577
0.371671164403
0.3704197122
0.369162130632
0.367909135496
0.366682012051
0.41327017189
0.41216924191
0.411066956336
0.409970835514
0.408873651142
0.407781617696
0.406689116563
0.405601942521
0.404514366408
0.403431150977
0.402348466302
0.401270143235
0.400191502725
0.399117742002
0.398043765212
0.396974428872
0.395905561989
0.394840402527
0.393775295066
0.392714973059
0.391654870845
0.390598875255
0.389542923584
0.388491199148
0.387439407842
0.386392137461
0.385344848387
0.384301363652
0.38325816203
0.382219195201
0.381180099369
0.380144738935
0.379109301588
0.378078310396
0.37704693625
0.376018609012
0.374989255067
0.373963248436
0.372934042922
0.37192743704
0.370836918576
0.369543534942
0.368681301456
0.372930202455
0.378864292648
0.379934431526
0.379311822921
0.379045181033
0.379305820537
0.37977250744
0.380052045021
0.379596071728
0.378796874798
0.377786509166
0.376646728456
0.375426386674
0.374178482892
0.372925984369
0.371671608581
0.370418261568
0.369161575368
0.367923333076
0.36672068504
0.413270585705
0.412169636241
0.411067363119
0.409971222109
0.408873976521
0.407782026871
0.406689397515
0.40560246142
0.404514789432
0.403431840664
0.402348890405
0.401270747757
0.400192034723
0.399118352608
0.398044188837
0.396975113321
0.395906011882
0.394841065866
0.393775806719
0.392715657553
0.391655259037
0.390599436916
0.389543276582
0.388491694493
0.387439625795
0.386392466982
0.385344948581
0.384301683573
0.383258092326
0.382219347285
0.381179984096
0.380144817102
0.379109123022
0.378078273983
0.377046724011
0.376018472162
0.374989008216
0.373963013076
0.37293252037
0.371931739703
0.370809092027
0.369549281939
0.36875746843
0.372849450365
0.378376523575
0.379478220187
0.378941024991
0.378950218937
0.379439366927
0.380103909618
0.38022706675
0.379743757416
0.378905324442
0.377855251391
0.376680146503
0.375437923598
0.374182021426
0.372926564024
0.371668242042
0.370409464151
0.369162394869
0.367945418534
0.366776848162
0.413271022306
0.412170037395
0.411067787418
0.409971599499
0.408874325149
0.407782424458
0.406689720518
0.405602953798
0.404515193876
0.403432417752
0.402349318633
0.401271339269
0.400192573438
0.399118949377
0.398044609644
0.396975724633
0.395906460254
0.394841702326
0.393776304117
0.392716294206
0.391655674377
0.390600000414
0.389543623154
0.388492192059
0.387439876914
0.38639279428
0.385345078246
0.38430197728
0.383258125299
0.382219528618
0.381179974999
0.380144835832
0.379108948299
0.37807815036
0.37704651809
0.376018325708
0.374988801628
0.373962640957
0.372930979331
0.371935187117
0.370778032721
0.369564920005
0.36883918247
0.372785482136
0.377890555754
0.37903088985
0.378593016878
0.378851129117
0.379606455231
0.380393916547
0.380363883537
0.379860613744
0.378991753168
0.377908200309
0.376702489896
0.375445793253
0.374184408793
0.372925457888
0.371658420734
0.370400594847
0.369170601774
0.367982134847
0.366845673361
0.365094436582
0.363880434085
0.362671886694
0.361462543103
0.36027147653
0.359098208657
0.357970131686
0.356904793638
0.355902266589
0.355012772773
0.354276347755
0.353763413195
0.353486177741
0.353329913956
0.353209156446
0.353037098951
0.352767121856
0.352389719568
0.351912239025
0.351343628794
0.350692665713
0.349970802485
0.349187780954
0.34835375089
0.347475434776
0.346561409339
0.345629626903
0.344675167596
0.343705853897
0.342719177037
0.341725153581
0.340726935306
0.33972064417
0.338714243349
0.33770115369
0.336690560551
0.335675494554
0.334657026854
0.333640074853
0.332619454003
0.331604728775
0.330587489462
0.329574351873
0.328561852543
0.327553537867
0.326550437623
0.325551100603
0.324562772793
0.323581576594
0.322614778872
0.321660154901
0.320716979982
0.319790261111
0.31887242342
0.317975519644
0.317090601606
0.316231114222
0.315390098918
0.314575938912
0.313803338847
0.31305461827
0.312365127755
0.365132281275
0.363914604274
0.362703805586
0.361490996636
0.360285777789
0.359107011558
0.357970688332
0.35689057737
0.35589252051
0.354974235418
0.354186081293
0.353611590961
0.353314243955
0.353281076548
0.353240650429
0.353099634736
0.352842184677
0.352473104813
0.351995921215
0.351421911192
0.350764092
0.350036847992
0.349250897453
0.348416619382
0.347539009471
0.346623363022
0.345679954472
0.344710445963
0.343730489896
0.342736579782