/*--------------------------------*- C++ -*----------------------------------*\
  =========                 |
  \\      /  F ield         | OpenFOAM: The Open Source CFD Toolbox
   \\    /   O peration     | Website:  https://openfoam.org
    \\  /    A nd           | Version:  6
     \\/     M anipulation  |
\*---------------------------------------------------------------------------*/
FoamFile
{
    version     2.0;
    format      ascii;
    class       volScalarField;
    location    "0.0002";
    object      T;
}
// * * * * * * * * * * * * * * * * * * * * * * * * * * * * * * * * * * * * * //

dimensions      [0 0 0 1 0 0 0];

internalField   nonuniform List<scalar> 
208908
(
1882.67850628
1879.49324729
1877.36734489
1875.25168638
1873.13500519
1871.01926758
1868.90348198
1866.79124336
1864.67802046
1862.565401
1860.45386471
1858.34439698
1856.2348262
1854.12730115
1852.01913494
1849.91276504
1847.80683445
1845.70255807
1843.59865917
1841.49632706
1839.39382345
1837.29297079
1835.1917325
1833.09273464
1830.99412148
1828.8962734
1826.79927805
1824.70367742
1822.6085495
1820.51384368
1818.42078483
1816.32887099
1814.23749374
1812.14694961
1810.05739586
1807.96858985
1805.88104405
1803.79311719
1801.70743447
1799.62171665
1797.5380314
1795.45355088
1793.3717629
1791.28928593
1789.20890231
1787.12802331
1785.04922094
1782.97007668
1780.89303217
1778.81550401
1776.73997197
1774.66389344
1772.5900884
1770.51571581
1768.44315162
1766.37030832
1764.29909971
1762.2282774
1760.1585137
1758.08999042
1756.02097878
1753.95443225
1882.68048366
1879.49521273
1877.36930932
1875.25364545
1873.13697696
1871.02117483
1868.90529944
1866.79307589
1864.67988613
1862.56718541
1860.4556477
1858.34608593
1856.23652464
1854.1289971
1852.02079782
1849.91440416
1847.808455
1845.70410726
1843.60019717
1841.49783156
1839.39526611
1837.29443759
1835.19312263
1833.0941137
1830.99546588
1828.89771752
1826.80068592
1824.70516456
1822.61003453
1820.51535322
1818.4222768
1816.33031743
1814.23886741
1812.14843176
1810.05880182
1807.96998871
1805.88239889
1803.79451789
1801.70881584
1799.6229556
1797.53929691
1795.4547896
1793.37301473
1791.29043885
1789.21007499
1787.12912303
1785.05035252
1782.97120696
1780.89418495
1778.8166192
1776.74112278
1774.66502877
1772.59122006
1770.51678638
1768.4442344
1766.3713464
1764.3001821
1762.22946917
1760.15958847
1758.09110936
1756.0219352
1753.95560188
1882.68235627
1879.49707778
1877.37117499
1875.25551642
1873.13887495
1871.02300736
1868.90704814
1866.79483134
1864.68166639
1862.56889276
1860.45735517
1858.34770072
1856.23814499
1854.13061449
1852.02238318
1849.91596464
1847.80998812
1845.70556661
1843.60164116
1841.49924674
1839.39662949
1837.29581773
1835.19447145
1833.09546086
1830.996784
1828.89914934
1826.80207586
1824.70663738
1822.61148172
1820.51683505
1818.42373172
1816.33172601
1814.24020795
1812.14989434
1810.06018182
1807.97136865
1805.88373866
1803.79592468
1801.71018303
1799.62420129
1797.54055031
1795.45599354
1793.37422933
1791.29155086
1789.21127998
1787.13023192
1785.05144914
1782.9723086
1780.8952857
1778.81767977
1776.74221793
1774.66610583
1772.59228645
1770.51779432
1768.44525809
1766.37236505
1764.30122421
1762.23065888
1760.16070711
1758.09224737
1756.02295666
1753.9566817
1882.68410641
1879.49882399
1877.37292757
1875.25728597
1873.14068262
1871.02475037
1868.90871626
1866.79649845
1864.6833521
1862.57051657
1860.45898327
1858.34923613
1856.23968655
1854.13214795
1852.02388673
1849.91744054
1847.81143037
1845.70693533
1843.60299722
1841.50057897
1839.39792461
1837.2971326
1835.19577867
1833.09677878
1830.99807395
1828.90056252
1826.80343857
1824.70806419
1822.61286875
1820.51825754
1818.42512223
1816.33306712
1814.24149058
1812.15131199
1810.06151025
1807.97269947
1805.88504239
1803.79729916
1801.71150062
1799.62541798
1797.54176338
1795.45716551
1793.37540942
1791.29263556
1789.21247375
1787.13129754
1785.05253676
1782.97341204
1780.89633805
1778.81867363
1776.74324977
1774.66711692
1772.59328639
1770.5187363
1768.44624396
1766.37337025
1764.30225317
1762.23179527
1760.16180187
1758.09337885
1756.02401484
1753.95774243
1882.68572029
1879.50043882
1877.37455565
1875.25894156
1873.14238793
1871.02639364
1868.91029839
1866.79807582
1864.6849474
1862.57206113
1860.46053607
1858.35069611
1856.24115443
1854.13360288
1852.02531186
1849.91883705
1847.81279046
1845.70822816
1843.60428352
1841.50184825
1839.39917467
1837.29840457
1835.19705416
1833.09807453
1830.99934846
1828.90195846
1826.80477617
1824.70944747
1822.61419925
1820.51962319
1818.42645426
1816.33435768
1814.24272581
1812.15268174
1810.06279776
1807.97399363
1805.88628935
1803.798639
1801.7127634
1799.62659479
1797.5429354
1795.45831511
1793.3765606
1791.29371685
1789.21361362
1787.13231666
1785.05363411
1782.97450856
1780.8973432
1778.81961731
1776.74422654
1774.66807785
1772.59424137
1770.51963353
1768.44721002
1766.37435835
1764.30327628
1762.23287723
1760.16283972
1758.09447826
1756.02507937
1753.95879233
1882.6872062
1879.50192903
1877.37606409
1875.26048317
1873.14398904
1871.02794068
1868.91180688
1866.79957715
1864.68646909
1862.57353982
1860.46202188
1858.35208945
1856.24255934
1854.1349916
1852.02667292
1849.92016466
1847.81408257
1845.70946199
1843.60552249
1841.50307675
1839.40039589
1837.29965366
1835.19832391
1833.0993657
1831.00061768
1828.90334123
1826.80608745
1824.71078747
1822.61547903
1820.52094421
1818.42774557
1816.33562384
1814.24391929
1812.15399955
1810.06404731
1807.97525861
1805.88747636
1803.79993541
1801.71397755
1799.62774307
1797.54407214
1795.45944691
1793.37769369
1791.29481546
1789.21468885
1787.13330353
1785.05471077
1782.97557042
1780.89832017
1778.82055139
1776.74517249
1774.66901184
1772.59516192
1770.52051841
1768.44814517
1766.37531849
1764.30429339
1762.2339074
1760.16382648
1758.09553802
1756.02613076
1753.95985071
1882.68858317
1879.50331309
1877.37746863
1875.26191869
1873.14549219
1871.02940021
1868.91325581
1866.80102378
1864.68793899
1862.57496979
1860.46345803
1858.3534335
1856.24391646
1854.13632657
1852.02798431
1849.92144578
1847.81533308
1845.71066208
1843.60673578
1841.50429113
1839.40162278
1837.30090605
1835.19960529
1833.10066461
1831.00188022
1828.90470108
1826.80737639
1824.71209674
1822.61672093
1820.52223929
1818.42901063
1816.33688649
1814.24508974
1812.15525967
1810.06527006
1807.97650469
1805.8886263
1803.80119469
1801.71514902
1799.62887176
1797.54518496
1795.46056964
1793.37881689
1791.2959443
1789.2157432
1787.13429012
1785.05575277
1782.97658685
1780.89927684
1778.82149279
1776.74610041
1774.6699337
1772.59606292
1770.52141883
1768.44906257
1766.37627499
1764.30529351
1762.23488553
1760.1647658
1758.0965539
1756.02715588
1753.96091568
1882.68988655
1879.50462503
1877.37880581
1875.26327759
1873.14691411
1871.03079781
1868.91467297
1866.80244031
1864.68938122
1862.57636972
1860.4648606
1858.35474578
1856.24524555
1854.13762868
1852.02926485
1849.92269665
1847.81656679
1845.71186201
1843.60796523
1841.50553206
1839.40288819
1837.30219069
1835.20090651
1833.10196717
1831.00313232
1828.90604217
1826.80865129
1824.71338252
1822.61793818
1820.52352863
1818.4302668
1816.33814556
1814.2462548
1812.15649066
1810.06647933
1807.9777384
1805.88975
1803.80242568
1801.71628897
1799.62999103
1797.54628402
1795.46169155
1793.37993954
1791.29710666
1789.21679537
1787.13530453
1785.05677361
1782.97757825
1780.9002144
1778.82242598
1776.74701689
1774.67085088
1772.59696944
1770.52233947
1768.44999221
1766.37725099
1764.30627048
1762.23580595
1760.16566468
1758.09752211
1756.02814172
1753.96195791
1882.69112454
1879.5058721
1877.38008387
1875.2645672
1873.14826802
1871.03213546
1868.91606158
1866.80382898
1864.69079582
1862.577744
1860.466241
1858.35603893
1856.24655892
1854.13891197
1852.03053303
1849.92394288
1847.8178176
1845.71309859
1843.60924731
1841.50682363
1839.40419617
1837.30351463
1835.20222207
1833.10327682
1831.00438282
1828.90736781
1826.80993093
1824.71466376
1822.61916204
1820.52482649
1818.43152693
1816.33940469
1814.24741449
1812.15770138
1810.06767741
1807.97897092
1805.89086288
1803.80363745
1801.71740923
1799.63111358
1797.5473779
1795.46281381
1793.38106224
1791.29828329
1789.21786497
1787.13637974
1785.05780725
1782.97856362
1780.90113745
1778.82334322
1776.74791513
1774.67176816
1772.59788797
1770.52327765
1768.45095509
1766.37826336
1764.30723159
1762.23670853
1760.16654568
1758.09843979
1756.02907725
1753.96293616
1882.69231668
1879.50707259
1877.38132473
1875.26580722
1873.1495719
1871.03343568
1868.91742753
1866.80518439
1864.69217197
1862.57909291
1860.46760498
1858.35732162
1856.24786526
1854.1401858
1852.03180331
1849.92520897
1847.81911092
1845.71439024
1843.61058676
1841.50816184
1839.40554765
1837.30487192
1835.20355872
1833.10459037
1831.00563935
1828.90867936
1826.81123762
1824.71595905
1822.62039301
1820.52612855
1818.43278406
1816.34066375
1814.24858711
1812.15891679
1810.06888156
1807.98021458
1805.89196994
1803.80483426
1801.71852085
1799.63225204
1797.54848294
1795.46394505
1793.3821833
1791.29944454
1789.2189813
1787.13752281
1785.05886689
1782.97955612
1780.90206865
1778.82426103
1776.74881306
1774.67269517
1772.59881554
1770.52422071
1768.45193276
1766.37928729
1764.30819916
1762.23762246
1760.16743001
1758.09932185
1756.02997654
1753.96383488
1882.69346225
1879.50822619
1877.38252903
1875.26699661
1873.15083218
1871.03468103
1868.91874733
1866.80648341
1864.69348966
1862.58040396
1860.46894863
1858.3585926
1856.24916763
1854.1414606
1852.03309231
1849.92650624
1847.82045189
1845.71573754
1843.61198089
1841.5095383
1839.40693163
1837.30625368
1835.20492049
1833.10591962
1831.00691188
1828.90999446
1826.81256424
1824.717258
1822.6216294
1820.52742971
1818.43404498
1816.34193445
1814.24978378
1812.16014172
1810.07008312
1807.98145866
1805.89307619
1803.80602336
1801.71964898
1799.63342153
1797.54961413
1795.46509033
1793.38329655
1791.30058123
1789.22011266
1787.13867859
1785.05993899
1782.98058913
1780.90304575
1778.82520725
1776.74972738
1774.67363221
1772.59974139
1770.52515382
1768.45287816
1766.38028239
1764.30917032
1762.2385747
1760.16833477
1758.10019543
1756.0308726
1753.96466601
1882.69455481
1879.5093291
1877.38369348
1875.26812786
1873.15203647
1871.03585931
1868.91999695
1866.80770232
1864.69473041
1862.58165997
1860.47025504
1858.35983951
1856.25046217
1854.14273783
1852.03440673
1849.92783677
1847.82183358
1845.71712751
1843.61340649
1841.51092169
1839.4083186
1837.30764048
1835.20630718
1833.10726945
1831.00820482
1828.91130933
1826.81389229
1824.71855468
1822.62286732
1820.52873049
1818.43532085
1816.34322313
1814.25100305
1812.16136785
1810.07127924
1807.98269701
1805.8941937
1803.80722227
1801.72079364
1799.63463813
1797.55077781
1795.46624441
1793.38440705
1791.30170892
1789.22122363
1787.13981802
1785.0610331
1782.98168939
1780.90409258
1778.82621299
1776.75067403
1774.6745828
1772.6006631
1770.52606761
1768.45378212
1766.38122181
1764.31010876
1762.23954954
1760.1692742
1758.10108085
1756.0317799
1753.9654648
1882.69558656
1879.51037575
1877.38480986
1875.2691898
1873.15317695
1871.03694856
1868.92115373
1866.80881851
1864.69587946
1862.58284512
1860.4715077
1858.3610447
1856.25173336
1854.14400732
1852.03574588
1849.92919074
1847.82324166
1845.71853638
1843.61483478
1841.51229143
1839.40970626
1837.30902047
1835.20770497
1833.10864355
1831.00952216
1828.91262411
1826.81520375
1824.71984184
1822.62411149
1820.53003837
1818.43661417
1816.34452703
1814.25224212
1812.16259757
1810.07246952
1807.98392548
1805.89533302
1803.80843322
1801.72195371
1799.63589249
1797.55196878
1795.46741011
1793.38552533
1791.30283607
1789.22233863
1787.14093303
1785.06214711
1782.98284706
1780.90517823
1778.8272732
1776.75166591
1774.67555369
1772.60158916
1770.5269648
1768.45466255
1766.38210574
1764.31099807
1762.24048721
1760.17021131
1758.10198511
1756.03272507
1753.96627416
1882.69653302
1879.51134169
1877.38585127
1875.2701535
1873.15420991
1871.03792323
1868.92219883
1866.80981081
1864.69692359
1862.58393559
1860.47268609
1858.36219269
1856.25298002
1854.1452403
1852.0370836
1849.93053561
1847.82465306
1845.71992744
1843.61624037
1841.51364101
1839.4110896
1837.31039
1835.20910007
1833.11002614
1831.01085617
1828.91393931
1826.81650218
1824.72112034
1822.62537069
1820.5313613
1818.43793236
1816.34583906
1814.25348625
1812.1638177
1810.073641
1807.9851304
1805.8964788
1803.80964812
1801.72312282
1799.63716151
1797.5531626
1795.46857761
1793.38664577
1791.3039526
1789.22343521
1787.14201576
1785.06325789
1782.98400724
1780.90624943
1778.8283788
1776.7527081
1774.67655537
1772.60252352
1770.52785512
1768.45553673
1766.38295496
1764.31183722
1762.2413612
1760.17110582
1758.10286515
1756.03366952
1753.96709645
1882.69737298
1879.51220139
1877.38679443
1875.27099366
1873.15510106
1871.03878893
1868.92312679
1866.81065766
1864.69786376
1862.58492031
1860.4737766
1858.3632716
1856.2541587
1854.14640201
1852.03837782
1849.9318191
1847.8260097
1845.72125607
1843.61759073
1841.51493654
1839.41243395
1837.31171803
1835.21046756
1833.11137618
1831.0121774
1828.91523004
1826.81777481
1824.72237043
1822.62662872
1820.53268245
1818.43924657
1816.34711301
1814.25470197
1812.16500484
1810.07477826
1807.9862975
1805.89760245
1803.81083913
1801.72427802
1799.63841068
1797.554326
1795.46972035
1793.38775083
1791.30504755
1789.2244999
1787.14306883
1785.064335
1782.98511424
1780.90728412
1778.82948101
1776.75376489
1774.67758773
1772.60346064
1770.52875191
1768.45642094
1766.38378463
1764.31264939
1762.24218349
1760.17194008
1758.10368505
1756.03455878
1753.96791936
1751.88792268
1749.82167984
1747.75676082
1745.69147116
1743.62878301
1741.56497167
1739.50397931
1737.440976
1735.38153072
1733.32164088
1731.26353336
1729.20447151
1727.14772592
1725.08965612
1723.03516659
1720.97832673
1718.92508094
1716.86957351
1714.81723253
1712.76308139
1710.71293524
1708.65948513
1706.60988413
1704.55818245
1702.51019962
1700.45958894
1698.41290499
1696.36317232
1694.31675084
1692.26794128
1690.22204279
1688.17290683
1686.12647399
1684.07748497
1682.03148034
1679.97981748
1677.94331176
1675.88334244
1673.84666502
1671.69186866
1669.8477497
1667.47810381
1664.54629061
1678.80208008
1695.20757939
1696.35445075
1692.55938157
1689.25058343
1686.21064937
1683.65480096
1681.49819561
1680.26541589
1679.65939656
1678.79397113
1677.61842582
1676.14987569
1674.36835198
1672.3084634
1670.03322423
1667.62260064
1665.15141501
1662.6639479
1660.17384208
1751.8888167
1749.82279842
1747.75748749
1745.69251116
1743.62973174
1741.56609542
1739.50489178
1737.44193328
1735.38239054
1733.32235791
1731.26419344
1729.20526621
1727.14842484
1725.09052838
1723.03575626
1720.97888613
1718.92571122
1716.87024777
1714.81786034
1712.76375045
1710.7134895
1708.65996808
1706.61042898
1704.55858509
1702.51076224
1700.46028577
1698.41356651
1696.3637571
1694.31735441
1692.268324
1690.22242366
1688.17334084
1686.12679428
1684.07790886
1682.0323195
1679.97911364
1677.94301218
1675.88322756
1673.84314205
1671.6959108
1669.85170689
1667.43435452
1664.53811501
1678.1957605
1694.57933216
1695.861896
1692.22153032
1688.96382881
1686.0489763
1683.63196332
1681.74606005
1680.85657939
1680.26061684
1679.37782387
1678.120116
1676.57062369
1674.71109359
1672.57650609
1670.2393007
1667.77925632
1665.27251194
1662.76045711
1660.2522776
1751.88978876
1749.82388849
1747.75818633
1745.69356609
1743.63074592
1741.56714694
1739.50577217
1737.44308663
1735.38329963
1733.32311344
1731.26481438
1729.20603623
1727.14898855
1725.0914509
1723.03636528
1720.97957542
1718.92633547
1716.87096015
1714.81845322
1712.76445115
1710.71396072
1708.66045856
1706.61095678
1704.5590643
1702.51136958
1700.46105792
1698.41424367
1696.36433457
1694.31793238
1692.26872042
1690.22282506
1688.17379739
1686.12713289
1684.07820591
1682.03327589
1679.97865659
1677.94217149
1675.88300567
1673.84041209
1671.70181881
1669.85244184
1667.3847134
1664.53758206
1677.61292137
1693.91641794
1695.32295592
1691.85693448
1688.66145118
1685.90500366
1683.66817971
1682.11282395
1681.49902018
1680.81952656
1679.90272602
1678.5724119
1676.93656281
1674.99989203
1672.79817741
1670.4103146
1667.91286745
1665.37975978
1662.84720958
1660.32745776
1751.89069241
1749.82497096
1747.75894949
1745.6946885
1743.63177687
1741.56812754
1739.50669183
1737.44430188
1735.38419372
1733.3239233
1731.26544486
1729.20686421
1727.14948984
1725.09236456
1723.03699496
1720.98043452
1718.9269603
1716.87169653
1714.81894716
1712.76509508
1710.71435781
1708.66102833
1706.61152829
1704.55967985
1702.51201614
1700.46186531
1698.41485952
1696.36486351
1694.31845763
1692.26911983
1690.22322236
1688.17422369
1686.12745736
1684.07833686
1682.03410202
1679.97867258
1677.94091444
1675.88268584
1673.83842583
1671.70956838
1669.84889876
1667.33027385
1664.54722268
1677.05906379
1693.21816916
1694.73658134
1691.46080416
1688.35172962
1685.78186494
1683.76519443
1682.60212469
1682.13632352
1681.3723425
1680.38360315
1678.97850912
1677.25880047
1675.2495235
1672.98816547
1670.56050649
1668.03961107
1665.48651779
1662.93530621
1660.40005904
1751.89150021
1749.82604707
1747.7598733
1745.69583035
1743.63277768
1741.56907753
1739.50764032
1737.44539452
1735.38505642
1733.32484823
1731.26619812
1729.20772296
1727.1500778
1725.09320623
1723.03766692
1720.98133812
1718.92756006
1716.87242078
1714.81938803
1712.76570552
1710.71473073
1708.66175385
1706.61210784
1704.56043348
1702.51266188
1700.46266612
1698.41538436
1696.36536856
1694.31891253
1692.26951777
1690.22358688
1688.17456698
1686.12777269
1684.07838034
1682.0346468
1679.97904726
1677.9393763
1675.88215728
1673.83722083
1671.71791989
1669.84145183
1667.27460166
1664.56863193
1676.53571972
1692.48432447
1694.1023937
1691.02859357
1688.04327815
1685.69675235
1683.95643787
1683.13321454
1682.74483107
1681.91418361
1680.83278379
1679.34116462
1677.53183686
1675.45112701
1673.136896
1670.67798152
1668.14244456
1665.58130647
1663.01949146
1660.46775532
1751.8922638
1749.82716606
1747.76080428
1745.69707091
1743.63373481
1741.57007588
1739.50857233
1737.446365
1735.3859237
1733.32583453
1731.26709465
1729.20869259
1727.15079257
1725.09403241
1723.03836501
1720.98213006
1718.92818385
1716.87321302
1714.81977435
1712.76637327
1710.71515437
1708.6626548
1706.61270608
1704.56130391
1702.51324625
1700.46346519
1698.41585815
1696.36591592
1694.31928146
1692.26990465
1690.22385178
1688.17482457
1686.12809861
1684.07846193
1682.03490874
1679.9798684
1677.9377144
1675.88187257
1673.83615136
1671.72708656
1669.83056014
1667.22357066
1664.60224086
1676.04454812
1691.71670954
1693.42160064
1690.56760259
1687.73535413
1685.65076734
1684.2108197
1683.64887268
1683.34110805
1682.44292869
1681.24928397
1679.66394093
1677.76471411
1675.61421057
1673.25350005
1670.77526771
1668.23512077
1665.67141245
1663.1049559
1660.53784525
1751.89303617
1749.82825967
1747.76161342
1745.69830247
1743.63466119
1741.57114505
1739.50947059
1737.44730606
1735.38678338
1733.32678896
1731.2679988
1729.20975695
1727.15158721
1725.09488995
1723.03902942
1720.98286292
1718.92885949
1716.87399156
1714.82017362
1712.76707028
1710.71572955
1708.66366022
1706.61337165
1704.56227197
1702.51373504
1700.46426222
1698.41623486
1696.36650399
1694.31958505
1692.27033303
1690.22396749
1688.17494428
1686.12839199
1684.07874273
1682.03476131
1679.98065569
1677.936128
1675.88148481
1673.83460936
1671.73776818
1669.81283458
1667.17480597
1664.65091212
1675.58912168
1690.91682282
1692.69518286
1690.06824149
1687.42583713
1685.64725783
1684.53586922
1684.17769207
1683.93485253
1682.96818627
1681.64158845
1679.94988682
1677.95951241
1675.74009516
1673.33736433
1670.8456664
1668.30784661
1665.74808693
1663.18153853
1660.60417756
1751.89383795
1749.82930574
1747.76238439
1745.69939717
1743.63557549
1741.5722525
1739.51032246
1737.44833367
1735.38764836
1733.32771072
1731.26885323
1729.21086032
1727.15241919
1725.09582736
1723.03968737
1720.98367863
1718.92956457
1716.87473943
1714.820688
1712.76781841
1710.71646698
1708.66463323
1706.61409702
1704.56323757
1702.51413176
1700.46498259
1698.41659633
1696.36715338
1694.31976349
1692.27079141
1690.22395906
1688.1750717
1686.12852205
1684.07906046
1682.0343071
1679.98170683
1677.93480146
1675.88122066
1673.83282153
1671.74811655
1669.79006386
1667.13041594
1664.71502492
1675.17185166
1690.08564457
1691.92605073
1689.5310946
1687.10295961
1685.67647187
1684.9313615
1684.73238616
1684.48767057
1683.46266047
1682.00361144
1680.20132948
1678.11987619
1675.83366014
1673.39677034
1670.89771427
1668.36478028
1665.81122695
1663.24608771
1660.66681685
1751.89464828
1749.83031229
1747.76316428
1745.70041595
1743.63639017
1741.57342021
1739.5111671
1737.44942483
1735.38853217
1733.32865091
1731.26970363
1729.21188246
1727.15338768
1725.09685474
1723.04040491
1720.98464827
1718.93031065
1716.87559834
1714.82136651
1712.76873494
1710.71721676
1708.66558486
1706.61481454
1704.56408726
1702.51457813
1700.4655738
1698.41694172
1696.36770695
1694.31978698
1692.27125359
1690.22388532
1688.17529761
1686.12844413
1684.07948508
1682.03336726
1679.98304344
1677.9335047
1675.8809651
1673.82987204
1671.75923263
1669.76348949
1667.08997937
1664.79586063
1674.79747852
1689.22574838
1691.11713734
1688.96633834
1686.78517788
1685.77615581
1685.35808358
1685.33626114
1685.01144059
1683.91809687
1682.33088938
1680.41764021
1678.24770463
1675.90184522
1673.43981699
1670.93695054
1668.40924957
1665.86276415
1663.29698237
1660.72690886
1751.89544587
1749.83127414
1747.76395947
1745.70139385
1743.63710318
1741.57453359
1739.51194202
1737.45056586
1735.38943142
1733.32964416
1731.2706104
1729.21290071
1727.15442003
1725.09788534
1723.04119383
1720.98575779
1718.93117251
1716.87659605
1714.82218192
1712.76976935
1710.7179918
1708.66653696
1706.6154585
1704.56487449
1702.51508654
1700.46601101
1698.41720443
1696.3679996
1694.31979307
1692.27177446
1690.22384899
1688.17546263
1686.12827329
1684.07992353
1682.03271468
1679.98323086
1677.93284557
1675.88068009
1673.82754491
1671.77050026
1669.73195786
1667.05670781
1664.89163392
1674.46714818
1688.33722763
1690.27182424
1688.37034786
1686.47779041
1685.932975
1685.71953367
1685.99431326
1685.5116976
1684.31446418
1682.61237492
1680.59657626
1678.34176783
1675.94337898
1673.46432888
1670.95894335
1668.43616751
1665.89624129
1663.33612222
1660.78338232
1751.89622083
1749.83215677
1747.76475639
1745.70232616
1743.63774437
1741.57549322
1739.51261569
1737.45169253
1735.39038989
1733.33072818
1731.27156435
1729.21388802
1727.15540204
1725.09892586
1723.04204596
1720.98695292
1718.9322001
1716.87767555
1714.82307601
1712.77082711
1710.71883929
1708.66745968
1706.6161003
1704.56567599
1702.51557003
1700.46632897
1698.41739366
1696.3681541
1694.3199655
1692.27200792
1690.22398028
1688.17544229
1686.12824157
1684.080174
1682.03244381
1679.98325002
1677.93245298
1675.88035149
1673.82578026
1671.78092876
1669.6967086
1667.03204632
1665.00176776
1674.18212698
1687.42214479
1689.39598175
1687.72840175
1686.2274211
1686.02443717
1686.10083554
1686.65664769
1685.99449263
1684.66604676
1682.86135819
1680.75315877
1678.4202168
1675.9738962
1673.48076387
1670.97162034
1668.45247754
1665.91353183
1663.36474255
1660.83804509
1751.8969865
1749.83296878
1747.76551185
1745.7031745
1743.63835008
1741.57635028
1739.51316971
1737.45273849
1735.39141452
1733.33187008
1731.27256013
1729.2149232
1727.15634974
1725.10000653
1723.04299919
1720.98809979
1718.93328366
1716.87885893
1714.82407656
1712.77192054
1710.71968459
1708.66839497
1706.61679819
1704.5665
1702.5159391
1700.46673215
1698.41751851
1696.36837098
1694.31999208
1692.27211683
1690.22424043
1688.17570279
1686.12806897
1684.08050016
1682.03229176
1679.98331848
1677.93213957
1675.88000993
1673.82328576
1671.79071083
1669.65653766
1667.01829831
1665.12473878
1673.94121598
1686.48016328
1688.49913196
1687.05079673
1686.01109952
1686.13235772
1686.57830729
1687.26700892
1686.45038264
1684.97307999
1683.05899054
1680.86616692
1678.47419476
1675.99503845
1673.49075617
1670.97609393
1668.45550268
1665.91875961
1663.3851321
1660.89721555
1751.89777296
1749.83373186
1747.7662364
1745.70394146
1743.63894383
1741.57716799
1739.5136698
1737.4537721
1735.39235493
1733.33312027
1731.2735227
1729.21604583
1727.15730679
1725.10118579
1723.04397305
1720.98926664
1718.93429429
1716.88008098
1714.82518111
1712.77312772
1710.72050125
1708.66935854
1706.61759481
1704.56734831
1702.51630631
1700.46735016
1698.4177123
1696.36886274
1694.31982713
1692.27232304
1690.22401171
1688.17609967
1686.12753279
1684.08059244
1682.03217177
1679.98318581
1677.93165987
1675.87959989
1673.82065918
1671.80023259
1669.6092828
1667.01630501
1665.26227881
1673.74294148
1685.52139666
1687.59442492
1686.36739165
1685.8066506
1686.30859578
1687.22135985
1687.73432009
1686.82390365
1685.23151378
1683.21838159
1680.94529147
1678.50766488
1676.00983699
1673.49757064
1670.97657169
1668.45179068
1665.91733613
1663.41312311
1660.9738699
1751.89860666
1749.83448828
1747.76698002
1745.70465982
1743.63956426
1741.57794612
1739.51420332
1737.45475855
1735.393199
1733.33422232
1731.27446084
1729.2172612
1727.15829919
1725.10236588
1723.04482875
1720.99042592
1718.93528387
1716.88138214
1714.82624341
1712.77432653
1710.72132674
1708.67043924
1706.6183323
1704.56830352
1702.5167843
1700.46801123
1698.41799821
1696.36946013
1694.31975496
1692.27262983
1690.22381066
1688.17625528
1686.12714278
1684.08050675
1682.03190519
1679.98297076
1677.93113903
1675.87910864
1673.81756793
1671.80881479
1669.55352515
1667.02772576
1665.41503405
1673.58211825
1684.55749969
1686.69440404
1685.62853254
1685.62335133
1686.57108086
1687.87354721
1688.08133935
1687.11578805
1685.44563664
1683.3545895
1681.01188006
1678.53081035
1676.01770512
1673.49925475
1670.96979002
1668.43493165
1665.91838183
1663.45697518
1661.08567892
1751.89949196
1749.83526008
1747.76775856
1745.7053629
1743.64022627
1741.57869849
1739.51481289
1737.45569172
1735.39397666
1733.33529574
1731.27528041
1729.21841235
1727.15933402
1725.10351114
1723.04564014
1720.99158629
1718.93613598
1716.88261621
1714.82720274
1712.77554048
1710.7221123
1708.67153813
1706.61899197
1704.56927238
1702.51725813
1700.46864867
1698.41824721
1696.37004712
1694.3198421
1692.27302979
1690.22383758
1688.17632189
1686.12680812
1684.08027174
1682.03155083
1679.9827074
1677.93071678
1675.8783572
1673.81446268
1671.81569154
1669.49081104
1667.05862881
1665.5788703
1673.4547102
1683.59666622
1685.8118731
1684.93289861
1685.42945615
1686.90237539
1688.43253455
1688.35829319
1687.3475685
1685.61648072
1683.4598636
1681.05674656
1678.54701159
1676.02420187
1673.49761564
1670.951452
1668.41680465
1665.93426305
1663.52987347
1661.22316716
1657.69382527
1655.22225083
1652.74970866
1650.27518804
1647.82563486
1645.40599902
1643.07761331
1640.86312159
1638.77380055
1636.91637777
1635.36267882
1634.26644096
1633.65128392
1633.28442573
1632.98212102
1632.57026466
1631.95218596
1631.10821916
1630.05389031
1628.80801278
1627.38965447
1625.82380875
1624.13184852
1622.33597205
1620.45076281
1618.49472768
1616.50565792
1614.47354266
1612.41453615
1610.32347064
1608.22093522
1606.11323826
1603.98973966
1601.87245481
1599.74093459
1597.6189336
1595.48794852
1593.35009696
1591.21538933
1589.07293956
1586.93990695
1584.80100123
1582.66710532
1580.53513884
1578.40638671
1576.28982387
1574.17808079
1572.08624661
1570.01217226
1567.96192385
1565.93956287
1563.93592117
1561.96722519
1560.01208825
1558.09866151
1556.21129579
1554.37270201
1552.57447202
1550.83124299
1549.17677229
1547.57294204
1546.09704772
1657.77012006
1655.2894479
1652.81307643
1650.33038101
1647.85178956
1645.42191507
1643.07746426
1640.83258832
1638.75219265
1636.83586953
1635.17534863
1633.95217943
1633.29559389
1633.18142608
1633.04564691
1632.69735185
1632.10508366
1631.27850713
1630.22462023
1628.96740125
1627.53475705
1625.957649
1624.25954991
1622.46312281
1620.57950904
1618.62026075
1616.60710526
1614.54384405
1612.46284752
1610.35676152
1608.24456589
1606.12675345
1603.99623604
1601.87301824
1599.73556813
1597.60298613
1595.46409384
1593.32121001
1591.18879148
1589.0480585
1586.91967563
1584.7841868
1582.65603016
1580.52728288
1578.40325262
1576.28515462
1574.16667469
1572.06418157
1569.97001179
1567.8950648
1565.84478707
1563.80698808
1561.80292456
1559.81448646
1557.85697262
1555.91911417
1554.015435
1552.147118
1550.31503171
1548.55438407
1546.83468802
1545.21145304
1657.83671614
1655.34548865
1652.86692214
1650.38436701
1647.89546476
1645.47444986
1643.12657049
1640.87973578
1638.80190106
1636.9007933
1635.27250431
1634.01835936
1633.31612659
1633.15129498
1633.00575728
1632.66234705
1632.08312851
1631.27027573
1630.23114898
1628.98704291
1627.56644512
1625.99940146
1624.30539945
1622.50451034
1620.6291869
1618.69363986
1616.67396565
1614.59303293
1612.49573276
1610.3751177
1608.2531542
1606.12756424
1603.99214919
1601.86184716
1599.7129784
1597.57471439
1595.43496606
1593.29168896
1591.16019092
1589.02102424
1586.89651161
1584.76488102
1582.64130897
1580.51849055
1578.39790088
1576.28278439
1574.16382857
1572.05419678
1569.94840931
1567.85485145
1565.78155032
1563.71474188
1561.67631388
1559.65440479
1557.65903205
1555.68226631
1553.73137156
1551.80955101
1549.90948424
1548.07118467
1546.26499456
1544.52822303
1657.89239086
1655.3919924
1652.90812996
1650.43003592
1647.96230309
1645.55894427
1643.21513798
1641.00974214
1638.94577724
1637.14020825
1635.59363569
1634.42414003
1633.65919215
1633.18135853
1632.87556784
1632.47819174
1631.89509883
1631.09130199
1630.07426499
1628.8631641
1627.47687939
1625.93939694
1624.26746819
1622.48267805
1620.60701916
1618.66467259
1616.66006868
1614.59498725
1612.50302726
1610.3795796
1608.25232154
1606.11928227
1603.97465603
1601.83566302
1599.6845651
1597.54588585
1595.40619289
1593.26386027
1591.13273353
1588.9961532
1586.87306791
1584.74362194
1582.62408115
1580.50576919
1578.38907515
1576.27757767
1574.15877393
1572.04846055
1569.93570069
1567.83062667